 Entering Gaussian System, Link 0=/home/Gaussian/g09b01_i7_110.083/g09
 Input=glycine.gjf
 Output=glycine.log
 Initial command:
 /usr/local/g16/l1.exe /work/noriwo/Gau-15392.inp -scrdir=/work/noriwo/
 Entering Link 1 = /usr/local/g16/l1.exe PID=     15393.
  
 Copyright (c) 1988,1990,1992,1993,1995,1998,2003,2009,2016,
            Gaussian, Inc.  All Rights Reserved.
  
 This is part of the Gaussian(R) 16 program.  It is based on
 the Gaussian(R) 09 system (copyright 2009, Gaussian, Inc.),
 the Gaussian(R) 03 system (copyright 2003, Gaussian, Inc.),
 the Gaussian(R) 98 system (copyright 1998, Gaussian, Inc.),
 the Gaussian(R) 94 system (copyright 1995, Gaussian, Inc.),
 the Gaussian 92(TM) system (copyright 1992, Gaussian, Inc.),
 the Gaussian 90(TM) system (copyright 1990, Gaussian, Inc.),
 the Gaussian 88(TM) system (copyright 1988, Gaussian, Inc.),
 the Gaussian 86(TM) system (copyright 1986, Carnegie Mellon
 University), and the Gaussian 82(TM) system (copyright 1983,
 Carnegie Mellon University). Gaussian is a federally registered
 trademark of Gaussian, Inc.
  
 This software contains proprietary and confidential information,
 including trade secrets, belonging to Gaussian, Inc.
  
 This software is provided under written license and may be
 used, copied, transmitted, or stored only in accord with that
 written license.
  
 The following legend is applicable only to US Government
 contracts under FAR:
  
                    RESTRICTED RIGHTS LEGEND
  
 Use, reproduction and disclosure by the US Government is
 subject to restrictions as set forth in subparagraphs (a)
 and (c) of the Commercial Computer Software - Restricted
 Rights clause in FAR 52.227-19.
  
 Gaussian, Inc.
 340 Quinnipiac St., Bldg. 40, Wallingford CT 06492
  
  
 ---------------------------------------------------------------
 Warning -- This program may not be used in any manner that
 competes with the business of Gaussian, Inc. or will provide
 assistance to any competitor of Gaussian, Inc.  The licensee
 of this program is prohibited from giving any competitor of
 Gaussian, Inc. access to this program.  By using this program,
 the user acknowledges that Gaussian, Inc. is engaged in the
 business of creating and licensing software in the field of
 computational chemistry and represents and warrants to the
 licensee that it is not a competitor of Gaussian, Inc. and that
 it will not use this program in any manner prohibited above.
 ---------------------------------------------------------------
  

 Cite this work as:
 Gaussian 16, Revision A.03,
 M. J. Frisch, G. W. Trucks, H. B. Schlegel, G. E. Scuseria, 
 M. A. Robb, J. R. Cheeseman, G. Scalmani, V. Barone, 
 G. A. Petersson, H. Nakatsuji, X. Li, M. Caricato, A. V. Marenich, 
 J. Bloino, B. G. Janesko, R. Gomperts, B. Mennucci, H. P. Hratchian, 
 J. V. Ortiz, A. F. Izmaylov, J. L. Sonnenberg, D. Williams-Young, 
 F. Ding, F. Lipparini, F. Egidi, J. Goings, B. Peng, A. Petrone, 
 T. Henderson, D. Ranasinghe, V. G. Zakrzewski, J. Gao, N. Rega, 
 G. Zheng, W. Liang, M. Hada, M. Ehara, K. Toyota, R. Fukuda, 
 J. Hasegawa, M. Ishida, T. Nakajima, Y. Honda, O. Kitao, H. Nakai, 
 T. Vreven, K. Throssell, J. A. Montgomery, Jr., J. E. Peralta, 
 F. Ogliaro, M. J. Bearpark, J. J. Heyd, E. N. Brothers, K. N. Kudin, 
 V. N. Staroverov, T. A. Keith, R. Kobayashi, J. Normand, 
 K. Raghavachari, A. P. Rendell, J. C. Burant, S. S. Iyengar, 
 J. Tomasi, M. Cossi, J. M. Millam, M. Klene, C. Adamo, R. Cammi, 
 J. W. Ochterski, R. L. Martin, K. Morokuma, O. Farkas, 
 J. B. Foresman, and D. J. Fox, Gaussian, Inc., Wallingford CT, 2016.
 
 ******************************************
 Gaussian 16:  ES64L-G16RevA.03 25-Dec-2016
                27-Mar-2018 
 ******************************************
 %chk=glycine.chk
 ----------------------------------------------------------------------
 # hf/6-31g(d) geom=connectivity iop(6/33=2,6/42=6,6/50=1) pop=mk scf=t
 ight test
 ----------------------------------------------------------------------
 1/38=1,57=2,172=1/1;
 2/12=2,17=6,18=5,40=1/2;
 3/5=1,6=6,7=1,11=9,25=1,30=1/1,2,3;
 4//1;
 5/5=2,32=2,38=5/2;
 6/7=2,8=2,9=2,10=2,15=8,20=1,28=1,33=2,42=6,50=1/1,2;
 99/5=1,9=1/99;
 -------
 Glycine
 -------
 Symbolic Z-matrix:
 Charge =  0 Multiplicity = 1
 N                     0.85574  -1.16932   0. 
 H                     1.81578  -0.85557   0. 
 C                     0.        0.        0. 
 H                     0.66737  -1.63787  -0.87469 
 H                     0.66737  -1.63787   0.87469 
 C                     0.83788   1.27061   0. 
 H                    -0.62946  -0.00978  -0.88982 
 H                    -0.62946  -0.00978   0.88982 
 O                     2.09406   1.19593   0. 
 O                     0.19763   2.54927   0. 
 
                          Input orientation:                          
 ---------------------------------------------------------------------
 Center     Atomic      Atomic             Coordinates (Angstroms)
 Number     Number       Type             X           Y           Z
 ---------------------------------------------------------------------
      1          7           0        0.855744   -1.169317    0.000000
      2          1           0        1.815776   -0.855570    0.000000
      3          6           0        0.000000    0.000000    0.000000
      4          1           0        0.667367   -1.637867   -0.874686
      5          1           0        0.667367   -1.637867    0.874686
      6          6           0        0.837879    1.270608    0.000000
      7          1           0       -0.629459   -0.009782   -0.889823
      8          1           0       -0.629459   -0.009782    0.889823
      9          8           0        2.094062    1.195930    0.000000
     10          8           0        0.197631    2.549272    0.000000
 ---------------------------------------------------------------------
                    Distance matrix (angstroms):
                    1          2          3          4          5
     1  N    0.000000
     2  H    1.010000   0.000000
     3  C    1.449000   2.007248   0.000000
     4  H    1.010000   1.641922   1.973085   0.000000
     5  H    1.010000   1.641922   1.973085   1.749372   0.000000
     6  C    2.439991   2.340281   1.522001   3.041936   3.041936
     7  H    2.083779   2.736114   1.090000   2.081502   2.728720
     8  H    2.083779   2.736114   1.090000   2.728720   2.081502
     9  O    2.669799   2.070289   2.411503   3.291040   3.291040
    10  O    3.776377   3.769794   2.556921   4.303239   4.303239
                    6          7          8          9         10
     6  C    0.000000
     7  H    2.141090   0.000000
     8  H    2.141090   1.779646   0.000000
     9  O    1.258400   3.108552   3.108552   0.000000
    10  O    1.430000   2.832776   2.832776   2.329803   0.000000
 Stoichiometry    C2H5NO2
 Framework group  CS[SG(C2HNO2),X(H4)]
 Deg. of freedom    15
 Full point group                 CS      NOp   2
 Largest Abelian subgroup         CS      NOp   2
 Largest concise Abelian subgroup CS      NOp   2
                         Standard orientation:                         
 ---------------------------------------------------------------------
 Center     Atomic      Atomic             Coordinates (Angstroms)
 Number     Number       Type             X           Y           Z
 ---------------------------------------------------------------------
      1          7           0       -0.233750   -1.786871    0.000000
      2          1           0       -1.162245   -1.389383    0.000000
      3          6           0        0.722131   -0.697884    0.000000
      4          1           0       -0.087583   -2.270255    0.874686
      5          1           0       -0.087583   -2.270255   -0.874686
      6          6           0        0.000000    0.641898    0.000000
      7          1           0        1.348254   -0.763340    0.889823
      8          1           0        1.348254   -0.763340   -0.889823
      9          8           0       -1.257862    0.678697    0.000000
     10          8           0        0.750909    1.858876    0.000000
 ---------------------------------------------------------------------
 Rotational constants (GHZ):          10.3888523           3.7459084           2.8506578
 Standard basis: 6-31G(d) (6D, 7F)
 There are    61 symmetry adapted cartesian basis functions of A'  symmetry.
 There are    24 symmetry adapted cartesian basis functions of A"  symmetry.
 There are    61 symmetry adapted basis functions of A'  symmetry.
 There are    24 symmetry adapted basis functions of A"  symmetry.
    85 basis functions,   160 primitive gaussians,    85 cartesian basis functions
    20 alpha electrons       20 beta electrons
       nuclear repulsion energy       176.4041058966 Hartrees.
 NAtoms=   10 NActive=   10 NUniq=    8 SFac= 1.56D+00 NAtFMM=   60 NAOKFM=F Big=F
 Integral buffers will be    131072 words long.
 Raffenetti 1 integral format.
 Two-electron integral symmetry is turned on.
 One-electron integrals computed using PRISM.
 NBasis=    85 RedAO= T EigKep=  3.88D-03  NBF=    61    24
 NBsUse=    85 1.00D-06 EigRej= -1.00D+00 NBFU=    61    24
 ExpMin= 1.61D-01 ExpMax= 5.48D+03 ExpMxC= 8.25D+02 IAcc=3 IRadAn=         5 AccDes= 0.00D+00
 Harris functional with IExCor=  205 and IRadAn=       5 diagonalized for initial guess.
 HarFok:  IExCor=  205 AccDes= 0.00D+00 IRadAn=         5 IDoV= 1 UseB2=F ITyADJ=14
 ICtDFT=  3500011 ScaDFX=  1.000000  1.000000  1.000000  1.000000
 FoFCou: FMM=F IPFlag=           0 FMFlag=      100000 FMFlg1=           0
         NFxFlg=           0 DoJE=T BraDBF=F KetDBF=T FulRan=T
         wScrn=  0.000000 ICntrl=       500 IOpCl=  0 I1Cent=   200000004 NGrid=           0
         NMat0=    1 NMatS0=      1 NMatT0=    0 NMatD0=    1 NMtDS0=    0 NMtDT0=    0
 Petite list used in FoFCou.
 Initial guess orbital symmetries:
       Occupied  (A') (A') (A') (A') (A') (A') (A') (A') (A') (A')
                 (A") (A') (A') (A") (A') (A') (A") (A') (A") (A')
       Virtual   (A") (A') (A") (A') (A') (A') (A') (A") (A') (A')
                 (A') (A') (A") (A') (A') (A') (A") (A') (A') (A")
                 (A') (A") (A') (A") (A') (A') (A") (A') (A") (A')
                 (A') (A') (A") (A') (A") (A') (A') (A') (A") (A')
                 (A") (A') (A') (A") (A') (A') (A') (A") (A') (A")
                 (A") (A') (A') (A") (A') (A") (A') (A') (A') (A')
                 (A') (A') (A') (A') (A')
 The electronic state of the initial guess is 1-A'.
 Keep R1 ints in memory in symmetry-blocked form, NReq=10164382.
 Requested convergence on RMS density matrix=1.00D-08 within 128 cycles.
 Requested convergence on MAX density matrix=1.00D-06.
 Requested convergence on             energy=1.00D-06.
 No special actions if energy rises.
 SCF Done:  E(RHF) =  -282.708772802     A.U. after   15 cycles
            NFock= 15  Conv=0.46D-08     -V/T= 2.0036
 SCF density gives NOpUse=  2 NOpAll=  2.

 **********************************************************************

            Population analysis using the SCF density.

 **********************************************************************

 Orbital symmetries:
 BldTbl:  Degeneracy threshold= 1.00D-02
       Occupied  (A') (A') (A') (A') (A') (A') (A') (A') (A') (A")
                 (A') (A') (A') (A") (A') (A') (A") (A') (A') (A")
       Virtual   (A') (A") (A') (A") (A') (A') (A") (A') (A') (A')
                 (A') (A") (A') (A') (A') (A") (A') (A') (A") (A')
                 (A") (A') (A') (A") (A') (A') (A') (A") (A') (A")
                 (A') (A') (A") (A') (A") (A') (A') (A') (A") (A')
                 (A') (A") (A') (A") (A') (A') (A") (A') (A') (A")
                 (A") (A') (A') (A") (A') (A") (A') (A') (A') (A')
                 (A') (A') (A') (A') (A')
 The electronic state is 1-A'.
 Alpha  occ. eigenvalues --  -20.49579 -20.43202 -15.75371 -11.32923 -11.32431
 Alpha  occ. eigenvalues --   -1.40023  -1.31590  -1.14512  -1.02329  -0.87466
 Alpha  occ. eigenvalues --   -0.84665  -0.73719  -0.68919  -0.63625  -0.57958
 Alpha  occ. eigenvalues --   -0.51187  -0.48091  -0.37824  -0.33324  -0.31741
 Alpha virt. eigenvalues --    0.10593   0.15529   0.21675   0.22536   0.26827
 Alpha virt. eigenvalues --    0.31926   0.32652   0.40003   0.52515   0.57229
 Alpha virt. eigenvalues --    0.69402   0.72592   0.78059   0.84090   0.87115
 Alpha virt. eigenvalues --    0.88415   0.89643   0.95364   1.00280   1.02979
 Alpha virt. eigenvalues --    1.03429   1.04158   1.07553   1.08094   1.13697
 Alpha virt. eigenvalues --    1.22707   1.26488   1.33717   1.35380   1.41196
 Alpha virt. eigenvalues --    1.45282   1.48123   1.55169   1.65721   1.76539
 Alpha virt. eigenvalues --    1.81580   1.89518   2.04602   2.05503   2.08077
 Alpha virt. eigenvalues --    2.10497   2.20306   2.23662   2.24845   2.26325
 Alpha virt. eigenvalues --    2.32197   2.37802   2.37941   2.41891   2.44493
 Alpha virt. eigenvalues --    2.62577   2.62969   2.73370   2.82359   2.83620
 Alpha virt. eigenvalues --    2.97361   3.04513   3.23751   3.36003   3.44036
 Alpha virt. eigenvalues --    4.11300   4.28584   4.47812   4.58202   4.87622
          Condensed to atoms (all electrons):
               1          2          3          4          5          6
     1  N    7.063744   0.242843   0.018491   0.309524   0.309524  -0.031074
     2  H    0.242843   0.269656  -0.045998  -0.006346  -0.006346   0.001690
     3  C    0.018491  -0.045998   5.640775  -0.020981  -0.020981   0.183491
     4  H    0.309524  -0.006346  -0.020981   0.270540  -0.004492   0.001566
     5  H    0.309524  -0.006346  -0.020981  -0.004492   0.270540   0.001566
     6  C   -0.031074   0.001690   0.183491   0.001566   0.001566   4.225574
     7  H   -0.038631   0.002479   0.388607  -0.003695   0.001255  -0.017365
     8  H   -0.038631   0.002479   0.388607   0.001255  -0.003695  -0.017365
     9  O   -0.017384   0.064973  -0.114105   0.000220   0.000220   0.474862
    10  O    0.001583   0.000989  -0.073223  -0.000022  -0.000022   0.450386
               7          8          9         10
     1  N   -0.038631  -0.038631  -0.017384   0.001583
     2  H    0.002479   0.002479   0.064973   0.000989
     3  C    0.388607   0.388607  -0.114105  -0.073223
     4  H   -0.003695   0.001255   0.000220  -0.000022
     5  H    0.001255  -0.003695   0.000220  -0.000022
     6  C   -0.017365  -0.017365   0.474862   0.450386
     7  H    0.430598  -0.015347   0.000876   0.002181
     8  H   -0.015347   0.430598   0.000876   0.002181
     9  O    0.000876   0.000876   8.343241  -0.079301
    10  O    0.002181   0.002181  -0.079301   8.459300
 Mulliken charges:
               1
     1  N   -0.819989
     2  H    0.473580
     3  C   -0.344681
     4  H    0.452433
     5  H    0.452433
     6  C    0.726668
     7  H    0.249043
     8  H    0.249043
     9  O   -0.674478
    10  O   -0.764052
 Sum of Mulliken charges =  -0.00000
 Mulliken charges with hydrogens summed into heavy atoms:
               1
     1  N    0.558458
     3  C    0.153404
     6  C    0.726668
     9  O   -0.674478
    10  O   -0.764052
 DipInt: DoE/N= T F RetVal/Mat= T F Init=T NMatP=  1 IDeriv=0 Min/MaxMlt=  0  4
 Entering OneElI...
 OneElI was handed   104837257 working-precision words.
 Multipole integrals L=0 to 4 MinM= 0 MaxM= 0.
 Requested accuracy = 0.1000D-12
 ShPair: Thresh= 1.00D-13 NBox=     0 BxSize= 0.00D+00 RnKept= 8.13D+00
         NSMCal=                  465 NSMKep=                 456
 PrmmSu-InSpLW:  IPartL=    0 NPrtUS=    1 NPrtUL=    1 DoSpLW=F IThBeg=    0 IThEnd=    0 NThAct=    1.
 PrsmSu:  NPrtUS=   1 ThrOK=F IAlg=1 NPAlg=1 LenDen=           0 ISkipM=0 DoSpLW=F IThBeg=    0 IThEnd=    0.
 Prism:   IPart=     0 DynPar=F LinDyn=F Incr=           4.
 PRISM was handed   104789861 working-precision words and   456 shell-pairs
 IPart=  0 NShTot=         456 NBatch=          39 AvBLen=        11.7
 PrsmSu-ThDecC:  IPartSL=    0    0 NPrtUSL=    1    1 IThBeg=    0 IThEnd=    0 CPU=   -1 GPU=   -1 NThAct=    1.
 PrSmSu:  NxtVal=              5.
 Electronic moments (au):
        -40.00000000          0.29264799         -5.30688486          0.00000000
       -116.89780714       -279.92356847        -30.37219343        -15.75773172
         -0.00000000         -0.00000000         49.10645918         15.31093855
          0.00000000        -91.22289309        -79.94491788         -0.00000000
        -12.99503707         18.98812064         -0.00000000          0.00000000
       -793.57302007      -3733.24973645       -111.29506548         82.12118470
         -0.00000000       -648.94113508          0.00000000         -0.00000000
          0.00000000       -592.08353732       -107.93777626       -235.21576636
          0.00000000         -0.00000000          6.87132613
 Electronic spatial extent (au):  <R**2>=            427.1936
 DipInt: DoE/N= F T RetVal/Mat= T F Init=T NMatP=  1 IDeriv=0 Min/MaxMlt=  0  4
 Nuclear    moments (au):
         40.00000000         -0.00000000          0.00000000          0.00000000
         91.71098358        258.82025479         11.11930004         14.96714228
          0.00000000         -0.00000000        -47.46798301        -90.94546783
          0.00000000         77.15403781         63.58407604          0.00000000
         13.50367521        -31.59998649          0.00000000         -0.00000000
        416.45675410       2914.65245402         30.91880586        -95.43752501
          0.00000000        602.81072689         -0.00000000          0.00000000
         -0.00000000        369.41141602         36.85897546        112.33950929
         -0.00000000          0.00000000        -16.90371969
 Total      moments (au):
         -0.00000000          0.29264799         -5.30688486          0.00000000
        -25.18682356        -21.10331368        -19.25289339         -0.79058943
         -0.00000000         -0.00000000          1.63847616        -75.63452928
          0.00000000        -14.06885528        -16.36084185          0.00000000
          0.50863814        -12.61186585          0.00000000         -0.00000000
       -377.11626598       -818.59728243        -80.37625962        -13.31634030
          0.00000000        -46.13040819         -0.00000000         -0.00000000
         -0.00000000       -222.67212131        -71.07880081       -122.87625707
         -0.00000000         -0.00000000        -10.03239356
 Traceless Quadrup. (au):
         -3.33914668          0.74436319          2.59478349         -0.79058943
         -0.00000000         -0.00000000
 Charge=             -0.0000 electrons
 Dipole moment (field-independent basis, Debye):
    X=              0.7438    Y=            -13.4888    Z=              0.0000  Tot=             13.5092
 Quadrupole moment (field-independent basis, Debye-Ang):
   XX=            -33.8771   YY=            -28.3847   ZZ=            -25.8958
   XY=             -1.0634   XZ=             -0.0000   YZ=             -0.0000
 Traceless Quadrupole moment (field-independent basis, Debye-Ang):
   XX=             -4.4913   YY=              1.0012   ZZ=              3.4901
   XY=             -1.0634   XZ=             -0.0000   YZ=             -0.0000
 Octapole moment (field-independent basis, Debye-Ang**2):
  XXX=              1.1662  YYY=            -53.8337  ZZZ=              0.0000  XYY=            -10.0137
  XXY=            -11.6450  XXZ=              0.0000  XZZ=              0.3620  YZZ=             -8.9766
  YYZ=              0.0000  XYZ=             -0.0000
 Hexadecapole moment (field-independent basis, Debye-Ang**3):
 XXXX=           -142.0401 YYYY=           -308.3230 ZZZZ=            -30.2736 XXXY=             -5.0156
 XXXZ=              0.0000 YYYX=            -17.3749 YYYZ=             -0.0000 ZZZX=             -0.0000
 ZZZY=             -0.0000 XXYY=            -83.8690 XXZZ=            -26.7717 YYZZ=            -46.2811
 XXYZ=             -0.0000 YYXZ=             -0.0000 ZZXY=             -3.7787
 N-N= 1.764041058966D+02 E-N=-1.018720484143D+03  KE= 2.817043120877D+02
 Symmetry A'   KE= 2.691047544993D+02
 Symmetry A"   KE= 1.259955758841D+01
 Entering OneElI...
 OneElI was handed   104840567 working-precision words.
 Calculate electrostatic properties
    NBasis =    85  MinDer = 0  MaxDer = 0
    NGrid  =    10  NMatD  =   1
 Requested accuracy = 0.1000D-12
 ShPair: Thresh= 1.00D-13 NBox=     0 BxSize= 0.00D+00 RnKept= 8.13D+00
         NSMCal=                  465 NSMKep=                 452
 PrmmSu-InSpLW:  IPartL=    0 NPrtUS=    1 NPrtUL=    1 DoSpLW=F IThBeg=    0 IThEnd=    0 NThAct=    1.
 PrsmSu:  NPrtUS=   1 ThrOK=F IAlg=1 NPAlg=1 LenDen=           0 ISkipM=0 DoSpLW=F IThBeg=    0 IThEnd=    0.
 Prism:   IPart=     0 DynPar=F LinDyn=F Incr=          45.
 PRISM was handed   104794445 working-precision words and   452 shell-pairs
 IPart=  0 NShTot=        4520 NBatch=         452 AvBLen=        10.0
 PrsmSu-ThDecC:  IPartSL=    0    0 NPrtUSL=    1    1 IThBeg=    0 IThEnd=    0 CPU=   -1 GPU=   -1 NThAct=    1.
 PrSmSu:  NxtVal=             46.
 --------------------------------------------------------
       Center         ----      EFG at Nuclei      ----
                      3XX-RR        3YY-RR        3ZZ-RR
 --------------------------------------------------------
     1   Atom        0.119022      0.066766     -0.185788
     2   Atom       -0.289129      0.125260      0.163870
     3   Atom       -0.060770     -0.124184      0.184954
     4   Atom        0.178773      0.041779     -0.220552
     5   Atom        0.178773      0.041779     -0.220552
     6   Atom        0.335680      0.225878     -0.561558
     7   Atom        0.004887      0.137695     -0.142582
     8   Atom        0.004887      0.137695     -0.142582
     9   Atom       -0.967586      1.367474     -0.399888
    10   Atom        0.994868     -1.241643      0.246774
 --------------------------------------------------------
                        XY            XZ            YZ
 --------------------------------------------------------
     1   Atom       -0.034699     -0.000000     -0.000000
     2   Atom        0.170818      0.000000     -0.000000
     3   Atom       -0.375966     -0.000000      0.000000
     4   Atom        0.037973     -0.069841      0.245789
     5   Atom        0.037973      0.069841     -0.245789
     6   Atom        0.087052      0.000000     -0.000000
     7   Atom        0.003103     -0.205083      0.036934
     8   Atom        0.003103      0.205083     -0.036934
     9   Atom        0.152457      0.000000      0.000000
    10   Atom       -1.527795     -0.000000      0.000000
 --------------------------------------------------------


 ---------------------------------------------------------------------------------
              Nuclear Quadrupole Coupling Constant in Principal Axis System
 ---------------------------------------------------------------------------------

       Atom             a.u.   MegaHertz   Gauss  10(-4) cm-1        Axes

              Baa    -0.1858     0.892     0.318     0.298  0.0000  0.0000  1.0000
     1 N(14)  Bbb     0.0495    -0.238    -0.085    -0.079  0.4464  0.8949 -0.0000
              Bcc     0.1363    -0.655    -0.234    -0.218  0.8949 -0.4464  0.0000
 

 ---------------------------------------------------------------------------------

 No NMR shielding tensors so no spin-rotation constants.
 Leave Link  601 at Tue Mar 27 08:14:44 2018, MaxMem=   104857600 cpu:               0.1 elap:               0.1
 FitSet:  NAtFit=    10 NAtPot=    10 NAtFrz=     0 MDM=    14 TotChg=   0.00000
 Merz-Kollman atomic radii used.
 Atom Element Radius
    1     7    1.50
    2     1    1.20
    3     6    1.50
    4     1    1.20
    5     1    1.20
    6     6    1.50
    7     1    1.20
    8     1    1.20
    9     8    1.40
   10     8    1.40
 Generate VDW surfaces: Layer= 4 Dens= 6 Start= 1.400 Inc= 0.200

 **********************************************************************

            Electrostatic Properties Using The SCF Density

 **********************************************************************

       Atomic Center    1 is at  -0.233750 -1.786871  0.000000
       Atomic Center    2 is at  -1.162245 -1.389383  0.000000
       Atomic Center    3 is at   0.722131 -0.697884  0.000000
       Atomic Center    4 is at  -0.087583 -2.270255  0.874686
       Atomic Center    5 is at  -0.087583 -2.270255 -0.874686
       Atomic Center    6 is at   0.000000  0.641898  0.000000
       Atomic Center    7 is at   1.348254 -0.763340  0.889823
       Atomic Center    8 is at   1.348254 -0.763340 -0.889823
       Atomic Center    9 is at  -1.257862  0.678697  0.000000
       Atomic Center   10 is at   0.750909  1.858876  0.000000
      ESP Fit Center   11 is at  -0.635568 -1.090902  1.940147
      ESP Fit Center   12 is at  -0.553032 -0.664711  1.746086
      ESP Fit Center   13 is at  -0.936842 -0.855826  1.746086
      ESP Fit Center   14 is at  -1.225696 -1.172683  1.746086
      ESP Fit Center   15 is at  -1.380582 -1.572490  1.746086
      ESP Fit Center   16 is at  -1.658524 -2.205222  1.484924
      ESP Fit Center   17 is at  -1.779832 -2.598317  1.166697
      ESP Fit Center   18 is at  -1.896179 -2.787121  0.803635
      ESP Fit Center   19 is at  -1.642288 -3.121109  0.803635
      ESP Fit Center   20 is at  -2.034597 -2.786422  0.409690
      ESP Fit Center   21 is at  -1.796525 -3.128469  0.409690
      ESP Fit Center   22 is at  -1.494473 -3.415591  0.409690
      ESP Fit Center   23 is at  -1.140807 -3.636033  0.409690
      ESP Fit Center   24 is at  -0.750006 -3.780770  0.409690
      ESP Fit Center   25 is at   1.185280 -3.279689  0.409690
      ESP Fit Center   26 is at   1.456735 -2.963483  0.409690
      ESP Fit Center   27 is at   1.658981 -2.599105  0.409690
      ESP Fit Center   28 is at  -1.979836 -2.953568  0.000000
      ESP Fit Center   29 is at  -1.718674 -3.271795  0.000000
      ESP Fit Center   30 is at  -1.400447 -3.532957  0.000000
      ESP Fit Center   31 is at  -1.037385 -3.727018  0.000000
      ESP Fit Center   32 is at  -0.643440 -3.846520  0.000000
      ESP Fit Center   33 is at  -0.233750 -3.886871  0.000000
      ESP Fit Center   34 is at   0.175940 -3.846520  0.000000
      ESP Fit Center   35 is at   0.569885 -3.727018  0.000000
      ESP Fit Center   36 is at   0.932948 -3.532957  0.000000
      ESP Fit Center   37 is at   1.251174 -3.271795  0.000000
      ESP Fit Center   38 is at   1.512336 -2.953568  0.000000
      ESP Fit Center   39 is at   1.706397 -2.590506  0.000000
      ESP Fit Center   40 is at  -2.034597 -2.786422 -0.409690
      ESP Fit Center   41 is at  -1.796525 -3.128469 -0.409690
      ESP Fit Center   42 is at  -1.494473 -3.415591 -0.409690
      ESP Fit Center   43 is at  -1.140807 -3.636033 -0.409690
      ESP Fit Center   44 is at  -0.750006 -3.780770 -0.409690
      ESP Fit Center   45 is at   1.185280 -3.279689 -0.409690
      ESP Fit Center   46 is at   1.456735 -2.963483 -0.409690
      ESP Fit Center   47 is at   1.658981 -2.599105 -0.409690
      ESP Fit Center   48 is at  -1.896179 -2.787121 -0.803635
      ESP Fit Center   49 is at  -1.642288 -3.121109 -0.803635
      ESP Fit Center   50 is at  -1.779832 -2.598317 -1.166697
      ESP Fit Center   51 is at  -1.658524 -2.205222 -1.484924
      ESP Fit Center   52 is at  -0.553032 -0.664711 -1.746086
      ESP Fit Center   53 is at  -0.936842 -0.855826 -1.746086
      ESP Fit Center   54 is at  -1.225696 -1.172683 -1.746086
      ESP Fit Center   55 is at  -1.380582 -1.572490 -1.746086
      ESP Fit Center   56 is at  -0.635568 -1.090902 -1.940147
      ESP Fit Center   57 is at  -1.379653 -1.012821  1.622755
      ESP Fit Center   58 is at  -1.597061 -1.389383  1.622755
      ESP Fit Center   59 is at  -1.582245 -0.661922  1.454923
      ESP Fit Center   60 is at  -1.889707 -0.969383  1.454923
      ESP Fit Center   61 is at  -2.002245 -1.389383  1.454923
      ESP Fit Center   62 is at  -1.889707 -1.809383  1.454923
      ESP Fit Center   63 is at  -2.172252 -0.764013  1.187939
      ESP Fit Center   64 is at  -2.329958 -1.171100  1.187939
      ESP Fit Center   65 is at  -2.329958 -1.607666  1.187939
      ESP Fit Center   66 is at  -2.172252 -2.014752  1.187939
      ESP Fit Center   67 is at  -1.878139 -2.337379  1.187939
      ESP Fit Center   68 is at  -2.473085 -0.758116  0.840000
      ESP Fit Center   69 is at  -2.600918 -1.172538  0.840000
      ESP Fit Center   70 is at  -2.600918 -1.606228  0.840000
      ESP Fit Center   71 is at  -2.473085 -2.020650  0.840000
      ESP Fit Center   72 is at  -2.228779 -2.378982  0.840000
      ESP Fit Center   73 is at  -2.729707 -0.969383  0.434816
      ESP Fit Center   74 is at  -2.785001 -1.389383  0.434816
      ESP Fit Center   75 is at  -2.729707 -1.809383  0.434816
      ESP Fit Center   76 is at  -2.567593 -2.200761  0.434816
      ESP Fit Center   77 is at  -2.309707 -2.536844  0.434816
      ESP Fit Center   78 is at  -2.724270 -0.770934  0.000000
      ESP Fit Center   79 is at  -2.828998 -1.178823  0.000000
      ESP Fit Center   80 is at  -2.828998 -1.599943  0.000000
      ESP Fit Center   81 is at  -2.724270 -2.007832  0.000000
      ESP Fit Center   82 is at  -2.521394 -2.376862  0.000000
      ESP Fit Center   83 is at  -2.233118 -2.683845  0.000000
      ESP Fit Center   84 is at  -2.729707 -0.969383 -0.434816
      ESP Fit Center   85 is at  -2.785001 -1.389383 -0.434816
      ESP Fit Center   86 is at  -2.729707 -1.809383 -0.434816
      ESP Fit Center   87 is at  -2.567593 -2.200761 -0.434816
      ESP Fit Center   88 is at  -2.309707 -2.536844 -0.434816
      ESP Fit Center   89 is at  -2.473085 -0.758116 -0.840000
      ESP Fit Center   90 is at  -2.600918 -1.172538 -0.840000
      ESP Fit Center   91 is at  -2.600918 -1.606228 -0.840000
      ESP Fit Center   92 is at  -2.473085 -2.020650 -0.840000
      ESP Fit Center   93 is at  -2.228779 -2.378982 -0.840000
      ESP Fit Center   94 is at  -2.172252 -0.764013 -1.187939
      ESP Fit Center   95 is at  -2.329958 -1.171100 -1.187939
      ESP Fit Center   96 is at  -2.329958 -1.607666 -1.187939
      ESP Fit Center   97 is at  -2.172252 -2.014752 -1.187939
      ESP Fit Center   98 is at  -1.878139 -2.337379 -1.187939
      ESP Fit Center   99 is at  -1.582245 -0.661922 -1.454923
      ESP Fit Center  100 is at  -1.889707 -0.969383 -1.454923
      ESP Fit Center  101 is at  -2.002245 -1.389383 -1.454923
      ESP Fit Center  102 is at  -1.889707 -1.809383 -1.454923
      ESP Fit Center  103 is at  -1.379653 -1.012821 -1.622755
      ESP Fit Center  104 is at  -1.597061 -1.389383 -1.622755
      ESP Fit Center  105 is at   0.026162 -0.296066  1.940147
      ESP Fit Center  106 is at  -0.081505 -0.697884  1.940147
      ESP Fit Center  107 is at  -0.424702 -0.483503  1.746086
      ESP Fit Center  108 is at   2.412615  0.478728  0.409690
      ESP Fit Center  109 is at   1.811611 -2.445793  0.409690
      ESP Fit Center  110 is at   2.141161 -2.190702  0.409690
      ESP Fit Center  111 is at   2.822131 -0.697884  0.000000
      ESP Fit Center  112 is at   2.781780 -0.288194  0.000000
      ESP Fit Center  113 is at   2.662278  0.105752  0.000000
      ESP Fit Center  114 is at   2.468217  0.468814  0.000000
      ESP Fit Center  115 is at   1.888828 -2.443970  0.000000
      ESP Fit Center  116 is at   2.207055 -2.182808  0.000000
      ESP Fit Center  117 is at   2.468217 -1.864581  0.000000
      ESP Fit Center  118 is at   2.662278 -1.501519  0.000000
      ESP Fit Center  119 is at   2.781780 -1.107573  0.000000
      ESP Fit Center  120 is at   2.412615  0.478728 -0.409690
      ESP Fit Center  121 is at   1.811611 -2.445793 -0.409690
      ESP Fit Center  122 is at   2.141161 -2.190702 -0.409690
      ESP Fit Center  123 is at  -0.424702 -0.483503 -1.746086
      ESP Fit Center  124 is at   0.026162 -0.296066 -1.940147
      ESP Fit Center  125 is at  -0.081505 -0.697884 -1.940147
      ESP Fit Center  126 is at  -0.087583 -2.270255  2.554686
      ESP Fit Center  127 is at   0.347233 -2.270255  2.497441
      ESP Fit Center  128 is at   0.129825 -1.893693  2.497441
      ESP Fit Center  129 is at  -0.304991 -1.893693  2.497441
      ESP Fit Center  130 is at  -0.522399 -2.270255  2.497441
      ESP Fit Center  131 is at  -0.304991 -2.646816  2.497441
      ESP Fit Center  132 is at   0.129825 -2.646816  2.497441
      ESP Fit Center  133 is at   0.752417 -2.270255  2.329609
      ESP Fit Center  134 is at   0.639878 -1.850255  2.329609
      ESP Fit Center  135 is at   0.332417 -1.542793  2.329609
      ESP Fit Center  136 is at  -0.087583 -1.430255  2.329609
      ESP Fit Center  137 is at  -0.507583 -1.542793  2.329609
      ESP Fit Center  138 is at  -0.815045 -1.850255  2.329609
      ESP Fit Center  139 is at  -0.927583 -2.270255  2.329609
      ESP Fit Center  140 is at  -0.815045 -2.690255  2.329609
      ESP Fit Center  141 is at  -0.507583 -2.997716  2.329609
      ESP Fit Center  142 is at  -0.087583 -3.110255  2.329609
      ESP Fit Center  143 is at   0.332417 -2.997716  2.329609
      ESP Fit Center  144 is at   0.639878 -2.690255  2.329609
      ESP Fit Center  145 is at   1.100356 -2.270255  2.062625
      ESP Fit Center  146 is at   0.022026 -1.087383  2.062625
      ESP Fit Center  147 is at  -0.412679 -1.127664  2.062625
      ESP Fit Center  148 is at  -0.803477 -1.322259  2.062625
      ESP Fit Center  149 is at  -1.097590 -1.644885  2.062625
      ESP Fit Center  150 is at  -1.255296 -2.051971  2.062625
      ESP Fit Center  151 is at  -1.255296 -2.488538  2.062625
      ESP Fit Center  152 is at  -1.097590 -2.895624  2.062625
      ESP Fit Center  153 is at  -0.803477 -3.218251  2.062625
      ESP Fit Center  154 is at  -0.412679 -3.412845  2.062625
      ESP Fit Center  155 is at   0.022026 -3.453126  2.062625
      ESP Fit Center  156 is at   0.441927 -3.333654  2.062625
      ESP Fit Center  157 is at   0.790314 -3.070564  2.062625
      ESP Fit Center  158 is at   1.020137 -2.699388  2.062625
      ESP Fit Center  159 is at   1.367339 -2.270255  1.714686
      ESP Fit Center  160 is at  -1.526256 -2.053410  1.714686
      ESP Fit Center  161 is at  -1.526256 -2.487100  1.714686
      ESP Fit Center  162 is at  -1.398423 -2.901522  1.714686
      ESP Fit Center  163 is at  -1.154117 -3.259853  1.714686
      ESP Fit Center  164 is at  -0.815045 -3.530255  1.714686
      ESP Fit Center  165 is at  -0.411334 -3.688699  1.714686
      ESP Fit Center  166 is at   0.021143 -3.721109  1.714686
      ESP Fit Center  167 is at   0.443959 -3.624604  1.714686
      ESP Fit Center  168 is at   0.819546 -3.407759  1.714686
      ESP Fit Center  169 is at   1.114530 -3.089842  1.714686
      ESP Fit Center  170 is at   1.302701 -2.699101  1.714686
      ESP Fit Center  171 is at  -1.655045 -2.690255  1.309502
      ESP Fit Center  172 is at  -1.492931 -3.081632  1.309502
      ESP Fit Center  173 is at  -1.235045 -3.417716  1.309502
      ESP Fit Center  174 is at  -0.898961 -3.675602  1.309502
      ESP Fit Center  175 is at  -0.507583 -3.837716  1.309502
      ESP Fit Center  176 is at  -0.087583 -3.893010  1.309502
      ESP Fit Center  177 is at   0.332417 -3.837716  1.309502
      ESP Fit Center  178 is at   0.723794 -3.675602  1.309502
      ESP Fit Center  179 is at   1.059878 -3.417716  1.309502
      ESP Fit Center  180 is at   1.317764 -3.081632  1.309502
      ESP Fit Center  181 is at   1.479878 -2.690255  1.309502
      ESP Fit Center  182 is at  -1.158456 -3.564717  0.874686
      ESP Fit Center  183 is at  -0.802893 -3.790364  0.874686
      ESP Fit Center  184 is at  -0.402384 -3.920497  0.874686
      ESP Fit Center  185 is at   0.017905 -3.946940  0.874686
      ESP Fit Center  186 is at   0.431565 -3.868030  0.874686
      ESP Fit Center  187 is at   0.812606 -3.688726  0.874686
      ESP Fit Center  188 is at   1.137084 -3.420294  0.874686
      ESP Fit Center  189 is at   1.384612 -3.079601  0.874686
      ESP Fit Center  190 is at   1.539636 -2.688054  0.874686
      ESP Fit Center  191 is at  -0.507583 -3.837716  0.439870
      ESP Fit Center  192 is at  -0.087583 -3.893010  0.439870
      ESP Fit Center  193 is at   0.332417 -3.837716  0.439870
      ESP Fit Center  194 is at   0.723794 -3.675602  0.439870
      ESP Fit Center  195 is at   1.059878 -3.417716  0.439870
      ESP Fit Center  196 is at  -0.507583 -3.837716 -0.439870
      ESP Fit Center  197 is at  -0.087583 -3.893010 -0.439870
      ESP Fit Center  198 is at   0.332417 -3.837716 -0.439870
      ESP Fit Center  199 is at   0.723794 -3.675602 -0.439870
      ESP Fit Center  200 is at   1.059878 -3.417716 -0.439870
      ESP Fit Center  201 is at  -1.158456 -3.564717 -0.874686
      ESP Fit Center  202 is at  -0.802893 -3.790364 -0.874686
      ESP Fit Center  203 is at  -0.402384 -3.920497 -0.874686
      ESP Fit Center  204 is at   0.017905 -3.946940 -0.874686
      ESP Fit Center  205 is at   0.431565 -3.868030 -0.874686
      ESP Fit Center  206 is at   0.812606 -3.688726 -0.874686
      ESP Fit Center  207 is at   1.137084 -3.420294 -0.874686
      ESP Fit Center  208 is at   1.384612 -3.079601 -0.874686
      ESP Fit Center  209 is at   1.539636 -2.688054 -0.874686
      ESP Fit Center  210 is at  -1.655045 -2.690255 -1.309502
      ESP Fit Center  211 is at  -1.492931 -3.081632 -1.309502
      ESP Fit Center  212 is at  -1.235045 -3.417716 -1.309502
      ESP Fit Center  213 is at  -0.898961 -3.675602 -1.309502
      ESP Fit Center  214 is at  -0.507583 -3.837716 -1.309502
      ESP Fit Center  215 is at  -0.087583 -3.893010 -1.309502
      ESP Fit Center  216 is at   0.332417 -3.837716 -1.309502
      ESP Fit Center  217 is at   0.723794 -3.675602 -1.309502
      ESP Fit Center  218 is at   1.059878 -3.417716 -1.309502
      ESP Fit Center  219 is at   1.317764 -3.081632 -1.309502
      ESP Fit Center  220 is at   1.479878 -2.690255 -1.309502
      ESP Fit Center  221 is at   1.367339 -2.270255 -1.714686
      ESP Fit Center  222 is at  -1.526256 -2.053410 -1.714686
      ESP Fit Center  223 is at  -1.526256 -2.487100 -1.714686
      ESP Fit Center  224 is at  -1.398423 -2.901522 -1.714686
      ESP Fit Center  225 is at  -1.154117 -3.259853 -1.714686
      ESP Fit Center  226 is at  -0.815045 -3.530255 -1.714686
      ESP Fit Center  227 is at  -0.411334 -3.688699 -1.714686
      ESP Fit Center  228 is at   0.021143 -3.721109 -1.714686
      ESP Fit Center  229 is at   0.443959 -3.624604 -1.714686
      ESP Fit Center  230 is at   0.819546 -3.407759 -1.714686
      ESP Fit Center  231 is at   1.114530 -3.089842 -1.714686
      ESP Fit Center  232 is at   1.302701 -2.699101 -1.714686
      ESP Fit Center  233 is at   1.100356 -2.270255 -2.062625
      ESP Fit Center  234 is at   0.022026 -1.087383 -2.062625
      ESP Fit Center  235 is at  -0.412679 -1.127664 -2.062625
      ESP Fit Center  236 is at  -0.803477 -1.322259 -2.062625
      ESP Fit Center  237 is at  -1.097590 -1.644885 -2.062625
      ESP Fit Center  238 is at  -1.255296 -2.051971 -2.062625
      ESP Fit Center  239 is at  -1.255296 -2.488538 -2.062625
      ESP Fit Center  240 is at  -1.097590 -2.895624 -2.062625
      ESP Fit Center  241 is at  -0.803477 -3.218251 -2.062625
      ESP Fit Center  242 is at  -0.412679 -3.412845 -2.062625
      ESP Fit Center  243 is at   0.022026 -3.453126 -2.062625
      ESP Fit Center  244 is at   0.441927 -3.333654 -2.062625
      ESP Fit Center  245 is at   0.790314 -3.070564 -2.062625
      ESP Fit Center  246 is at   1.020137 -2.699388 -2.062625
      ESP Fit Center  247 is at   0.752417 -2.270255 -2.329609
      ESP Fit Center  248 is at   0.639878 -1.850255 -2.329609
      ESP Fit Center  249 is at   0.332417 -1.542793 -2.329609
      ESP Fit Center  250 is at  -0.087583 -1.430255 -2.329609
      ESP Fit Center  251 is at  -0.507583 -1.542793 -2.329609
      ESP Fit Center  252 is at  -0.815045 -1.850255 -2.329609
      ESP Fit Center  253 is at  -0.927583 -2.270255 -2.329609
      ESP Fit Center  254 is at  -0.815045 -2.690255 -2.329609
      ESP Fit Center  255 is at  -0.507583 -2.997716 -2.329609
      ESP Fit Center  256 is at  -0.087583 -3.110255 -2.329609
      ESP Fit Center  257 is at   0.332417 -2.997716 -2.329609
      ESP Fit Center  258 is at   0.639878 -2.690255 -2.329609
      ESP Fit Center  259 is at   0.347233 -2.270255 -2.497441
      ESP Fit Center  260 is at   0.129825 -1.893693 -2.497441
      ESP Fit Center  261 is at  -0.304991 -1.893693 -2.497441
      ESP Fit Center  262 is at  -0.522399 -2.270255 -2.497441
      ESP Fit Center  263 is at  -0.304991 -2.646816 -2.497441
      ESP Fit Center  264 is at   0.129825 -2.646816 -2.497441
      ESP Fit Center  265 is at  -0.087583 -2.270255 -2.554686
      ESP Fit Center  266 is at   0.000000  0.641898  2.100000
      ESP Fit Center  267 is at   0.409690  0.641898  2.059649
      ESP Fit Center  268 is at   0.204845  0.996699  2.059649
      ESP Fit Center  269 is at  -0.204845  0.996699  2.059649
      ESP Fit Center  270 is at  -0.409690  0.641898  2.059649
      ESP Fit Center  271 is at  -0.204845  0.287096  2.059649
      ESP Fit Center  272 is at   0.204845  0.287096  2.059649
      ESP Fit Center  273 is at   0.803635  0.641898  1.940147
      ESP Fit Center  274 is at   0.695969  1.043715  1.940147
      ESP Fit Center  275 is at   0.401818  1.337866  1.940147
      ESP Fit Center  276 is at   0.000000  1.445533  1.940147
      ESP Fit Center  277 is at  -0.401818  1.337866  1.940147
      ESP Fit Center  278 is at  -0.695969  1.043715  1.940147
      ESP Fit Center  279 is at  -0.803635  0.641898  1.940147
      ESP Fit Center  280 is at  -0.695969  0.240080  1.940147
      ESP Fit Center  281 is at  -0.401818 -0.054071  1.940147
      ESP Fit Center  282 is at  -0.000000 -0.161738  1.940147
      ESP Fit Center  283 is at  -0.319282  1.764057  1.746086
      ESP Fit Center  284 is at  -0.703092  1.572942  1.746086
      ESP Fit Center  285 is at  -0.703092 -0.289147  1.746086
      ESP Fit Center  286 is at  -0.616860  1.992632  1.484924
      ESP Fit Center  287 is at  -0.616860  1.992632 -1.484924
      ESP Fit Center  288 is at  -0.319282  1.764057 -1.746086
      ESP Fit Center  289 is at  -0.703092  1.572942 -1.746086
      ESP Fit Center  290 is at  -0.703092 -0.289147 -1.746086
      ESP Fit Center  291 is at   0.803635  0.641898 -1.940147
      ESP Fit Center  292 is at   0.695969  1.043715 -1.940147
      ESP Fit Center  293 is at   0.401818  1.337866 -1.940147
      ESP Fit Center  294 is at   0.000000  1.445533 -1.940147
      ESP Fit Center  295 is at  -0.401818  1.337866 -1.940147
      ESP Fit Center  296 is at  -0.695969  1.043715 -1.940147
      ESP Fit Center  297 is at  -0.803635  0.641898 -1.940147
      ESP Fit Center  298 is at  -0.695969  0.240080 -1.940147
      ESP Fit Center  299 is at  -0.401818 -0.054071 -1.940147
      ESP Fit Center  300 is at  -0.000000 -0.161738 -1.940147
      ESP Fit Center  301 is at   0.409690  0.641898 -2.059649
      ESP Fit Center  302 is at   0.204845  0.996699 -2.059649
      ESP Fit Center  303 is at  -0.204845  0.996699 -2.059649
      ESP Fit Center  304 is at  -0.409690  0.641898 -2.059649
      ESP Fit Center  305 is at  -0.204845  0.287096 -2.059649
      ESP Fit Center  306 is at   0.204845  0.287096 -2.059649
      ESP Fit Center  307 is at   0.000000  0.641898 -2.100000
      ESP Fit Center  308 is at   1.348254 -0.763340  2.569823
      ESP Fit Center  309 is at   1.783070 -0.763340  2.512578
      ESP Fit Center  310 is at   1.565662 -0.386778  2.512578
      ESP Fit Center  311 is at   1.130846 -0.386778  2.512578
      ESP Fit Center  312 is at   0.913438 -0.763340  2.512578
      ESP Fit Center  313 is at   1.130846 -1.139902  2.512578
      ESP Fit Center  314 is at   1.565662 -1.139902  2.512578
      ESP Fit Center  315 is at   2.188254 -0.763340  2.344746
      ESP Fit Center  316 is at   2.075715 -0.343340  2.344746
      ESP Fit Center  317 is at   1.768254 -0.035879  2.344746
      ESP Fit Center  318 is at   1.348254  0.076660  2.344746
      ESP Fit Center  319 is at   0.928254 -0.035879  2.344746
      ESP Fit Center  320 is at   0.620792 -0.343340  2.344746
      ESP Fit Center  321 is at   0.508254 -0.763340  2.344746
      ESP Fit Center  322 is at   0.620792 -1.183340  2.344746
      ESP Fit Center  323 is at   0.928254 -1.490801  2.344746
      ESP Fit Center  324 is at   1.348254 -1.603340  2.344746
      ESP Fit Center  325 is at   1.768254 -1.490801  2.344746
      ESP Fit Center  326 is at   2.075715 -1.183340  2.344746
      ESP Fit Center  327 is at   2.536193 -0.763340  2.077762
      ESP Fit Center  328 is at   2.455974 -0.334207  2.077762
      ESP Fit Center  329 is at   2.226152  0.036970  2.077762
      ESP Fit Center  330 is at   1.877764  0.300060  2.077762
      ESP Fit Center  331 is at   1.457863  0.419532  2.077762
      ESP Fit Center  332 is at   1.023159  0.379251  2.077762
      ESP Fit Center  333 is at   0.632360  0.184656  2.077762
      ESP Fit Center  334 is at   0.338247 -0.137970  2.077762
      ESP Fit Center  335 is at   0.180541 -0.545057  2.077762
      ESP Fit Center  336 is at   0.180541 -0.981623  2.077762
      ESP Fit Center  337 is at   1.457863 -1.946212  2.077762
      ESP Fit Center  338 is at   1.877764 -1.826740  2.077762
      ESP Fit Center  339 is at   2.226152 -1.563649  2.077762
      ESP Fit Center  340 is at   2.455974 -1.192473  2.077762
      ESP Fit Center  341 is at   2.803176 -0.763340  1.729823
      ESP Fit Center  342 is at   2.738538 -0.334494  1.729823
      ESP Fit Center  343 is at   2.550367  0.056247  1.729823
      ESP Fit Center  344 is at   2.255383  0.374165  1.729823
      ESP Fit Center  345 is at   1.879797  0.591009  1.729823
      ESP Fit Center  346 is at   1.456980  0.687515  1.729823
      ESP Fit Center  347 is at   1.456980 -2.214194  1.729823
      ESP Fit Center  348 is at   1.879797 -2.117689  1.729823
      ESP Fit Center  349 is at   2.255383 -1.900844  1.729823
      ESP Fit Center  350 is at   2.550367 -1.582927  1.729823
      ESP Fit Center  351 is at   2.738538 -1.192186  1.729823
      ESP Fit Center  352 is at   2.971009 -0.763340  1.324639
      ESP Fit Center  353 is at   2.915715 -0.343340  1.324639
      ESP Fit Center  354 is at   2.753601  0.048038  1.324639
      ESP Fit Center  355 is at   2.495715  0.384121  1.324639
      ESP Fit Center  356 is at   2.159631  0.642008  1.324639
      ESP Fit Center  357 is at   1.768254  0.804121  1.324639
      ESP Fit Center  358 is at   1.768254 -2.330801  1.324639
      ESP Fit Center  359 is at   2.159631 -2.168687  1.324639
      ESP Fit Center  360 is at   2.495715 -1.910801  1.324639
      ESP Fit Center  361 is at   2.753601 -1.574718  1.324639
      ESP Fit Center  362 is at   2.915715 -1.183340  1.324639
      ESP Fit Center  363 is at   3.028254 -0.763340  0.889823
      ESP Fit Center  364 is at   2.975473 -0.345541  0.889823
      ESP Fit Center  365 is at   2.820449  0.046006  0.889823
      ESP Fit Center  366 is at   2.572921  0.386699  0.889823
      ESP Fit Center  367 is at   2.248443  0.655131  0.889823
      ESP Fit Center  368 is at   1.867402 -2.361115  0.889823
      ESP Fit Center  369 is at   2.248443 -2.181811  0.889823
      ESP Fit Center  370 is at   2.572921 -1.913379  0.889823
      ESP Fit Center  371 is at   2.820449 -1.572686  0.889823
      ESP Fit Center  372 is at   2.975473 -1.181139  0.889823
      ESP Fit Center  373 is at   2.971009 -0.763340  0.455007
      ESP Fit Center  374 is at   2.915715 -0.343340  0.455007
      ESP Fit Center  375 is at   2.753601  0.048038  0.455007
      ESP Fit Center  376 is at   2.495715  0.384121  0.455007
      ESP Fit Center  377 is at   2.159631 -2.168687  0.455007
      ESP Fit Center  378 is at   2.495715 -1.910801  0.455007
      ESP Fit Center  379 is at   2.753601 -1.574718  0.455007
      ESP Fit Center  380 is at   2.915715 -1.183340  0.455007
      ESP Fit Center  381 is at   2.971009 -0.763340 -0.455007
      ESP Fit Center  382 is at   2.915715 -0.343340 -0.455007
      ESP Fit Center  383 is at   2.753601  0.048038 -0.455007
      ESP Fit Center  384 is at   2.495715  0.384121 -0.455007
      ESP Fit Center  385 is at   2.159631 -2.168687 -0.455007
      ESP Fit Center  386 is at   2.495715 -1.910801 -0.455007
      ESP Fit Center  387 is at   2.753601 -1.574718 -0.455007
      ESP Fit Center  388 is at   2.915715 -1.183340 -0.455007
      ESP Fit Center  389 is at   3.028254 -0.763340 -0.889823
      ESP Fit Center  390 is at   2.975473 -0.345541 -0.889823
      ESP Fit Center  391 is at   2.820449  0.046006 -0.889823
      ESP Fit Center  392 is at   2.572921  0.386699 -0.889823
      ESP Fit Center  393 is at   2.248443  0.655131 -0.889823
      ESP Fit Center  394 is at   1.867402 -2.361115 -0.889823
      ESP Fit Center  395 is at   2.248443 -2.181811 -0.889823
      ESP Fit Center  396 is at   2.572921 -1.913379 -0.889823
      ESP Fit Center  397 is at   2.820449 -1.572686 -0.889823
      ESP Fit Center  398 is at   2.975473 -1.181139 -0.889823
      ESP Fit Center  399 is at   2.971009 -0.763340 -1.324639
      ESP Fit Center  400 is at   2.915715 -0.343340 -1.324639
      ESP Fit Center  401 is at   2.753601  0.048038 -1.324639
      ESP Fit Center  402 is at   2.495715  0.384121 -1.324639
      ESP Fit Center  403 is at   2.159631  0.642008 -1.324639
      ESP Fit Center  404 is at   1.768254  0.804121 -1.324639
      ESP Fit Center  405 is at   1.768254 -2.330801 -1.324639
      ESP Fit Center  406 is at   2.159631 -2.168687 -1.324639
      ESP Fit Center  407 is at   2.495715 -1.910801 -1.324639
      ESP Fit Center  408 is at   2.753601 -1.574718 -1.324639
      ESP Fit Center  409 is at   2.915715 -1.183340 -1.324639
      ESP Fit Center  410 is at   2.803176 -0.763340 -1.729823
      ESP Fit Center  411 is at   2.738538 -0.334494 -1.729823
      ESP Fit Center  412 is at   2.550367  0.056247 -1.729823
      ESP Fit Center  413 is at   2.255383  0.374165 -1.729823
      ESP Fit Center  414 is at   1.879797  0.591009 -1.729823
      ESP Fit Center  415 is at   1.456980  0.687515 -1.729823
      ESP Fit Center  416 is at   1.456980 -2.214194 -1.729823
      ESP Fit Center  417 is at   1.879797 -2.117689 -1.729823
      ESP Fit Center  418 is at   2.255383 -1.900844 -1.729823
      ESP Fit Center  419 is at   2.550367 -1.582927 -1.729823
      ESP Fit Center  420 is at   2.738538 -1.192186 -1.729823
      ESP Fit Center  421 is at   2.536193 -0.763340 -2.077762
      ESP Fit Center  422 is at   2.455974 -0.334207 -2.077762
      ESP Fit Center  423 is at   2.226152  0.036970 -2.077762
      ESP Fit Center  424 is at   1.877764  0.300060 -2.077762
      ESP Fit Center  425 is at   1.457863  0.419532 -2.077762
      ESP Fit Center  426 is at   1.023159  0.379251 -2.077762
      ESP Fit Center  427 is at   0.632360  0.184656 -2.077762
      ESP Fit Center  428 is at   0.338247 -0.137970 -2.077762
      ESP Fit Center  429 is at   0.180541 -0.545057 -2.077762
      ESP Fit Center  430 is at   0.180541 -0.981623 -2.077762
      ESP Fit Center  431 is at   1.457863 -1.946212 -2.077762
      ESP Fit Center  432 is at   1.877764 -1.826740 -2.077762
      ESP Fit Center  433 is at   2.226152 -1.563649 -2.077762
      ESP Fit Center  434 is at   2.455974 -1.192473 -2.077762
      ESP Fit Center  435 is at   2.188254 -0.763340 -2.344746
      ESP Fit Center  436 is at   2.075715 -0.343340 -2.344746
      ESP Fit Center  437 is at   1.768254 -0.035879 -2.344746
      ESP Fit Center  438 is at   1.348254  0.076660 -2.344746
      ESP Fit Center  439 is at   0.928254 -0.035879 -2.344746
      ESP Fit Center  440 is at   0.620792 -0.343340 -2.344746
      ESP Fit Center  441 is at   0.508254 -0.763340 -2.344746
      ESP Fit Center  442 is at   0.620792 -1.183340 -2.344746
      ESP Fit Center  443 is at   0.928254 -1.490801 -2.344746
      ESP Fit Center  444 is at   1.348254 -1.603340 -2.344746
      ESP Fit Center  445 is at   1.768254 -1.490801 -2.344746
      ESP Fit Center  446 is at   2.075715 -1.183340 -2.344746
      ESP Fit Center  447 is at   1.783070 -0.763340 -2.512578
      ESP Fit Center  448 is at   1.565662 -0.386778 -2.512578
      ESP Fit Center  449 is at   1.130846 -0.386778 -2.512578
      ESP Fit Center  450 is at   0.913438 -0.763340 -2.512578
      ESP Fit Center  451 is at   1.130846 -1.139902 -2.512578
      ESP Fit Center  452 is at   1.565662 -1.139902 -2.512578
      ESP Fit Center  453 is at   1.348254 -0.763340 -2.569823
      ESP Fit Center  454 is at  -1.257862  0.678697  1.960000
      ESP Fit Center  455 is at  -1.054109  1.031608  1.917169
      ESP Fit Center  456 is at  -1.461616  1.031608  1.917169
      ESP Fit Center  457 is at  -1.665369  0.678697  1.917169
      ESP Fit Center  458 is at  -1.461616  0.325785  1.917169
      ESP Fit Center  459 is at  -1.054109  0.325785  1.917169
      ESP Fit Center  460 is at  -0.859260  1.369095  1.790549
      ESP Fit Center  461 is at  -1.257862  1.475900  1.790549
      ESP Fit Center  462 is at  -1.656464  1.369095  1.790549
      ESP Fit Center  463 is at  -1.948261  1.077299  1.790549
      ESP Fit Center  464 is at  -2.055066  0.678697  1.790549
      ESP Fit Center  465 is at  -1.948261  0.280095  1.790549
      ESP Fit Center  466 is at  -1.656464 -0.011702  1.790549
      ESP Fit Center  467 is at  -1.257862 -0.118507  1.790549
      ESP Fit Center  468 is at  -1.151564  1.825841  1.585673
      ESP Fit Center  469 is at  -1.573138  1.786777  1.585673
      ESP Fit Center  470 is at  -1.952133  1.598060  1.585673
      ESP Fit Center  471 is at  -2.237363  1.285178  1.585673
      ESP Fit Center  472 is at  -2.390305  0.890387  1.585673
      ESP Fit Center  473 is at  -2.390305  0.467006  1.585673
      ESP Fit Center  474 is at  -2.237363  0.072216  1.585673
      ESP Fit Center  475 is at  -1.952133 -0.240666  1.585673
      ESP Fit Center  476 is at  -1.573138 -0.429383  1.585673
      ESP Fit Center  477 is at  -1.151564 -0.468448  1.585673
      ESP Fit Center  478 is at  -1.050572  2.120435  1.311496
      ESP Fit Center  479 is at  -1.465153  2.120435  1.311496
      ESP Fit Center  480 is at  -1.862941  2.003634  1.311496
      ESP Fit Center  481 is at  -2.211709  1.779494  1.311496
      ESP Fit Center  482 is at  -2.483202  1.466174  1.311496
      ESP Fit Center  483 is at  -2.655425  1.089058  1.311496
      ESP Fit Center  484 is at  -2.714426  0.678697  1.311496
      ESP Fit Center  485 is at  -2.655425  0.268335  1.311496
      ESP Fit Center  486 is at  -2.483202 -0.108781  1.311496
      ESP Fit Center  487 is at  -2.211709 -0.422101  1.311496
      ESP Fit Center  488 is at  -1.151281  2.372757  0.980000
      ESP Fit Center  489 is at  -1.575925  2.346041  0.980000
      ESP Fit Center  490 is at  -1.980584  2.214559  0.980000
      ESP Fit Center  491 is at  -2.339832  1.986573  0.980000
      ESP Fit Center  492 is at  -2.631096  1.676409  0.980000
      ESP Fit Center  493 is at  -2.836074  1.303555  0.980000
      ESP Fit Center  494 is at  -2.941887  0.891438  0.980000
      ESP Fit Center  495 is at  -2.941887  0.465955  0.980000
      ESP Fit Center  496 is at  -2.836074  0.053838  0.980000
      ESP Fit Center  497 is at  -2.631096 -0.319016  0.980000
      ESP Fit Center  498 is at  -2.339832 -0.629180  0.980000
      ESP Fit Center  499 is at  -1.257862  2.542767  0.605673
      ESP Fit Center  500 is at  -1.672657  2.496031  0.605673
      ESP Fit Center  501 is at  -2.066652  2.358166  0.605673
      ESP Fit Center  502 is at  -2.420091  2.136086  0.605673
      ESP Fit Center  503 is at  -2.715251  1.840926  0.605673
      ESP Fit Center  504 is at  -2.937332  1.487487  0.605673
      ESP Fit Center  505 is at  -3.075197  1.093491  0.605673
      ESP Fit Center  506 is at  -3.121933  0.678697  0.605673
      ESP Fit Center  507 is at  -3.075197  0.263902  0.605673
      ESP Fit Center  508 is at  -2.937332 -0.130093  0.605673
      ESP Fit Center  509 is at  -2.715251 -0.483532  0.605673
      ESP Fit Center  510 is at  -1.152331  2.625101  0.204876
      ESP Fit Center  511 is at  -1.573218  2.602281  0.204876
      ESP Fit Center  512 is at  -1.979359  2.489516  0.204876
      ESP Fit Center  513 is at  -2.351763  2.292080  0.204876
      ESP Fit Center  514 is at  -2.673018  2.019204  0.204876
      ESP Fit Center  515 is at  -2.928102  1.683647  0.204876
      ESP Fit Center  516 is at  -3.105087  1.301099  0.204876
      ESP Fit Center  517 is at  -3.195699  0.889449  0.204876
      ESP Fit Center  518 is at  -3.195699  0.467944  0.204876
      ESP Fit Center  519 is at  -3.105087  0.056294  0.204876
      ESP Fit Center  520 is at  -2.928102 -0.326253  0.204876
      ESP Fit Center  521 is at  -2.673018 -0.661810  0.204876
      ESP Fit Center  522 is at  -1.152331  2.625101 -0.204876
      ESP Fit Center  523 is at  -1.573218  2.602281 -0.204876
      ESP Fit Center  524 is at  -1.979359  2.489516 -0.204876
      ESP Fit Center  525 is at  -2.351763  2.292080 -0.204876
      ESP Fit Center  526 is at  -2.673018  2.019204 -0.204876
      ESP Fit Center  527 is at  -2.928102  1.683647 -0.204876
      ESP Fit Center  528 is at  -3.105087  1.301099 -0.204876
      ESP Fit Center  529 is at  -3.195699  0.889449 -0.204876
      ESP Fit Center  530 is at  -3.195699  0.467944 -0.204876
      ESP Fit Center  531 is at  -3.105087  0.056294 -0.204876
      ESP Fit Center  532 is at  -2.928102 -0.326253 -0.204876
      ESP Fit Center  533 is at  -2.673018 -0.661810 -0.204876
      ESP Fit Center  534 is at  -1.257862  2.542767 -0.605673
      ESP Fit Center  535 is at  -1.672657  2.496031 -0.605673
      ESP Fit Center  536 is at  -2.066652  2.358166 -0.605673
      ESP Fit Center  537 is at  -2.420091  2.136086 -0.605673
      ESP Fit Center  538 is at  -2.715251  1.840926 -0.605673
      ESP Fit Center  539 is at  -2.937332  1.487487 -0.605673
      ESP Fit Center  540 is at  -3.075197  1.093491 -0.605673
      ESP Fit Center  541 is at  -3.121933  0.678697 -0.605673
      ESP Fit Center  542 is at  -3.075197  0.263902 -0.605673
      ESP Fit Center  543 is at  -2.937332 -0.130093 -0.605673
      ESP Fit Center  544 is at  -2.715251 -0.483532 -0.605673
      ESP Fit Center  545 is at  -1.151281  2.372757 -0.980000
      ESP Fit Center  546 is at  -1.575925  2.346041 -0.980000
      ESP Fit Center  547 is at  -1.980584  2.214559 -0.980000
      ESP Fit Center  548 is at  -2.339832  1.986573 -0.980000
      ESP Fit Center  549 is at  -2.631096  1.676409 -0.980000
      ESP Fit Center  550 is at  -2.836074  1.303555 -0.980000
      ESP Fit Center  551 is at  -2.941887  0.891438 -0.980000
      ESP Fit Center  552 is at  -2.941887  0.465955 -0.980000
      ESP Fit Center  553 is at  -2.836074  0.053838 -0.980000
      ESP Fit Center  554 is at  -2.631096 -0.319016 -0.980000
      ESP Fit Center  555 is at  -2.339832 -0.629180 -0.980000
      ESP Fit Center  556 is at  -1.050572  2.120435 -1.311496
      ESP Fit Center  557 is at  -1.465153  2.120435 -1.311496
      ESP Fit Center  558 is at  -1.862941  2.003634 -1.311496
      ESP Fit Center  559 is at  -2.211709  1.779494 -1.311496
      ESP Fit Center  560 is at  -2.483202  1.466174 -1.311496
      ESP Fit Center  561 is at  -2.655425  1.089058 -1.311496
      ESP Fit Center  562 is at  -2.714426  0.678697 -1.311496
      ESP Fit Center  563 is at  -2.655425  0.268335 -1.311496
      ESP Fit Center  564 is at  -2.483202 -0.108781 -1.311496
      ESP Fit Center  565 is at  -2.211709 -0.422101 -1.311496
      ESP Fit Center  566 is at  -1.151564  1.825841 -1.585673
      ESP Fit Center  567 is at  -1.573138  1.786777 -1.585673
      ESP Fit Center  568 is at  -1.952133  1.598060 -1.585673
      ESP Fit Center  569 is at  -2.237363  1.285178 -1.585673
      ESP Fit Center  570 is at  -2.390305  0.890387 -1.585673
      ESP Fit Center  571 is at  -2.390305  0.467006 -1.585673
      ESP Fit Center  572 is at  -2.237363  0.072216 -1.585673
      ESP Fit Center  573 is at  -1.952133 -0.240666 -1.585673
      ESP Fit Center  574 is at  -1.573138 -0.429383 -1.585673
      ESP Fit Center  575 is at  -1.151564 -0.468448 -1.585673
      ESP Fit Center  576 is at  -0.859260  1.369095 -1.790549
      ESP Fit Center  577 is at  -1.257862  1.475900 -1.790549
      ESP Fit Center  578 is at  -1.656464  1.369095 -1.790549
      ESP Fit Center  579 is at  -1.948261  1.077299 -1.790549
      ESP Fit Center  580 is at  -2.055066  0.678697 -1.790549
      ESP Fit Center  581 is at  -1.948261  0.280095 -1.790549
      ESP Fit Center  582 is at  -1.656464 -0.011702 -1.790549
      ESP Fit Center  583 is at  -1.257862 -0.118507 -1.790549
      ESP Fit Center  584 is at  -1.054109  1.031608 -1.917169
      ESP Fit Center  585 is at  -1.461616  1.031608 -1.917169
      ESP Fit Center  586 is at  -1.665369  0.678697 -1.917169
      ESP Fit Center  587 is at  -1.461616  0.325785 -1.917169
      ESP Fit Center  588 is at  -1.054109  0.325785 -1.917169
      ESP Fit Center  589 is at  -1.257862  0.678697 -1.960000
      ESP Fit Center  590 is at   0.750909  1.858876  1.960000
      ESP Fit Center  591 is at   1.158416  1.858876  1.917169
      ESP Fit Center  592 is at   0.954662  2.211787  1.917169
      ESP Fit Center  593 is at   0.547155  2.211787  1.917169
      ESP Fit Center  594 is at   0.343402  1.858876  1.917169
      ESP Fit Center  595 is at   0.547155  1.505965  1.917169
      ESP Fit Center  596 is at   0.954662  1.505965  1.917169
      ESP Fit Center  597 is at   1.548112  1.858876  1.790549
      ESP Fit Center  598 is at   1.441307  2.257478  1.790549
      ESP Fit Center  599 is at   1.149511  2.549275  1.790549
      ESP Fit Center  600 is at   0.750909  2.656080  1.790549
      ESP Fit Center  601 is at   0.352307  2.549275  1.790549
      ESP Fit Center  602 is at   0.060510  2.257478  1.790549
      ESP Fit Center  603 is at  -0.046295  1.858876  1.790549
      ESP Fit Center  604 is at   1.149511  1.168477  1.790549
      ESP Fit Center  605 is at   1.441307  1.460274  1.790549
      ESP Fit Center  606 is at   1.902968  1.858876  1.585673
      ESP Fit Center  607 is at   1.825172  2.275048  1.585673
      ESP Fit Center  608 is at   1.602291  2.635013  1.585673
      ESP Fit Center  609 is at   1.264426  2.890157  1.585673
      ESP Fit Center  610 is at   0.857207  3.006021  1.585673
      ESP Fit Center  611 is at   0.435633  2.966956  1.585673
      ESP Fit Center  612 is at   0.056638  2.778239  1.585673
      ESP Fit Center  613 is at  -0.228592  2.465357  1.585673
      ESP Fit Center  614 is at  -0.381534  2.070566  1.585673
      ESP Fit Center  615 is at   1.602291  1.082739  1.585673
      ESP Fit Center  616 is at   1.825172  1.442704  1.585673
      ESP Fit Center  617 is at   2.207473  1.858876  1.311496
      ESP Fit Center  618 is at   2.148471  2.269237  1.311496
      ESP Fit Center  619 is at   1.976248  2.646354  1.311496
      ESP Fit Center  620 is at   1.704755  2.959673  1.311496
      ESP Fit Center  621 is at   1.355987  3.183813  1.311496
      ESP Fit Center  622 is at   0.958199  3.300614  1.311496
      ESP Fit Center  623 is at   0.543618  3.300614  1.311496
      ESP Fit Center  624 is at   0.145830  3.183813  1.311496
      ESP Fit Center  625 is at  -0.202938  2.959673  1.311496
      ESP Fit Center  626 is at  -0.474431  2.646354  1.311496
      ESP Fit Center  627 is at  -0.646654  2.269237  1.311496
      ESP Fit Center  628 is at   1.976248  1.071398  1.311496
      ESP Fit Center  629 is at   2.148471  1.448515  1.311496
      ESP Fit Center  630 is at   2.448318  1.858876  0.980000
      ESP Fit Center  631 is at   2.394991  2.281005  0.980000
      ESP Fit Center  632 is at   2.238360  2.676609  0.980000
      ESP Fit Center  633 is at   1.988267  3.020833  0.980000
      ESP Fit Center  634 is at   1.660426  3.292046  0.980000
      ESP Fit Center  635 is at   1.275437  3.473209  0.980000
      ESP Fit Center  636 is at   0.857490  3.552936  0.980000
      ESP Fit Center  637 is at   0.432846  3.526220  0.980000
      ESP Fit Center  638 is at   0.028187  3.394738  0.980000
      ESP Fit Center  639 is at  -0.331061  3.166753  0.980000
      ESP Fit Center  640 is at  -0.622325  2.856588  0.980000
      ESP Fit Center  641 is at  -0.827303  2.483734  0.980000
      ESP Fit Center  642 is at   2.238360  1.041143  0.980000
      ESP Fit Center  643 is at   2.394991  1.436747  0.980000
      ESP Fit Center  644 is at   2.614979  1.858876  0.605673
      ESP Fit Center  645 is at   2.568243  2.273671  0.605673
      ESP Fit Center  646 is at   2.430378  2.667666  0.605673
      ESP Fit Center  647 is at   2.208298  3.021105  0.605673
      ESP Fit Center  648 is at   1.913138  3.316265  0.605673
      ESP Fit Center  649 is at   1.559699  3.538346  0.605673
      ESP Fit Center  650 is at   1.165703  3.676211  0.605673
      ESP Fit Center  651 is at   0.750909  3.722947  0.605673
      ESP Fit Center  652 is at   0.336114  3.676211  0.605673
      ESP Fit Center  653 is at  -0.057881  3.538346  0.605673
      ESP Fit Center  654 is at  -0.411320  3.316265  0.605673
      ESP Fit Center  655 is at  -0.706481  3.021105  0.605673
      ESP Fit Center  656 is at  -0.928561  2.667666  0.605673
      ESP Fit Center  657 is at   2.208298  0.696647  0.605673
      ESP Fit Center  658 is at   2.430378  1.050086  0.605673
      ESP Fit Center  659 is at   2.568243  1.444081  0.605673
      ESP Fit Center  660 is at   2.700172  1.858876  0.204876
      ESP Fit Center  661 is at   2.654599  2.277910  0.204876
      ESP Fit Center  662 is at   2.520012  2.677350  0.204876
      ESP Fit Center  663 is at   2.302703  3.038520  0.204876
      ESP Fit Center  664 is at   2.012835  3.344530  0.204876
      ESP Fit Center  665 is at   1.663960  3.581073  0.204876
      ESP Fit Center  666 is at   1.272392  3.737088  0.204876
      ESP Fit Center  667 is at   0.856440  3.805280  0.204876
      ESP Fit Center  668 is at   0.435553  3.782460  0.204876
      ESP Fit Center  669 is at   0.029412  3.669696  0.204876
      ESP Fit Center  670 is at  -0.342992  3.472259  0.204876
      ESP Fit Center  671 is at  -0.664247  3.199383  0.204876
      ESP Fit Center  672 is at  -0.919331  2.863826  0.204876
      ESP Fit Center  673 is at   2.302703  0.679232  0.204876
      ESP Fit Center  674 is at   2.520012  1.040402  0.204876
      ESP Fit Center  675 is at   2.654599  1.439842  0.204876
      ESP Fit Center  676 is at   2.700172  1.858876 -0.204876
      ESP Fit Center  677 is at   2.654599  2.277910 -0.204876
      ESP Fit Center  678 is at   2.520012  2.677350 -0.204876
      ESP Fit Center  679 is at   2.302703  3.038520 -0.204876
      ESP Fit Center  680 is at   2.012835  3.344530 -0.204876
      ESP Fit Center  681 is at   1.663960  3.581073 -0.204876
      ESP Fit Center  682 is at   1.272392  3.737088 -0.204876
      ESP Fit Center  683 is at   0.856440  3.805280 -0.204876
      ESP Fit Center  684 is at   0.435553  3.782460 -0.204876
      ESP Fit Center  685 is at   0.029412  3.669696 -0.204876
      ESP Fit Center  686 is at  -0.342992  3.472259 -0.204876
      ESP Fit Center  687 is at  -0.664247  3.199383 -0.204876
      ESP Fit Center  688 is at  -0.919331  2.863826 -0.204876
      ESP Fit Center  689 is at   2.302703  0.679232 -0.204876
      ESP Fit Center  690 is at   2.520012  1.040402 -0.204876
      ESP Fit Center  691 is at   2.654599  1.439842 -0.204876
      ESP Fit Center  692 is at   2.614979  1.858876 -0.605673
      ESP Fit Center  693 is at   2.568243  2.273671 -0.605673
      ESP Fit Center  694 is at   2.430378  2.667666 -0.605673
      ESP Fit Center  695 is at   2.208298  3.021105 -0.605673
      ESP Fit Center  696 is at   1.913138  3.316265 -0.605673
      ESP Fit Center  697 is at   1.559699  3.538346 -0.605673
      ESP Fit Center  698 is at   1.165703  3.676211 -0.605673
      ESP Fit Center  699 is at   0.750909  3.722947 -0.605673
      ESP Fit Center  700 is at   0.336114  3.676211 -0.605673
      ESP Fit Center  701 is at  -0.057881  3.538346 -0.605673
      ESP Fit Center  702 is at  -0.411320  3.316265 -0.605673
      ESP Fit Center  703 is at  -0.706481  3.021105 -0.605673
      ESP Fit Center  704 is at  -0.928561  2.667666 -0.605673
      ESP Fit Center  705 is at   2.208298  0.696647 -0.605673
      ESP Fit Center  706 is at   2.430378  1.050086 -0.605673
      ESP Fit Center  707 is at   2.568243  1.444081 -0.605673
      ESP Fit Center  708 is at   2.448318  1.858876 -0.980000
      ESP Fit Center  709 is at   2.394991  2.281005 -0.980000
      ESP Fit Center  710 is at   2.238360  2.676609 -0.980000
      ESP Fit Center  711 is at   1.988267  3.020833 -0.980000
      ESP Fit Center  712 is at   1.660426  3.292046 -0.980000
      ESP Fit Center  713 is at   1.275437  3.473209 -0.980000
      ESP Fit Center  714 is at   0.857490  3.552936 -0.980000
      ESP Fit Center  715 is at   0.432846  3.526220 -0.980000
      ESP Fit Center  716 is at   0.028187  3.394738 -0.980000
      ESP Fit Center  717 is at  -0.331061  3.166753 -0.980000
      ESP Fit Center  718 is at  -0.622325  2.856588 -0.980000
      ESP Fit Center  719 is at  -0.827303  2.483734 -0.980000
      ESP Fit Center  720 is at   2.238360  1.041143 -0.980000
      ESP Fit Center  721 is at   2.394991  1.436747 -0.980000
      ESP Fit Center  722 is at   2.207473  1.858876 -1.311496
      ESP Fit Center  723 is at   2.148471  2.269237 -1.311496
      ESP Fit Center  724 is at   1.976248  2.646354 -1.311496
      ESP Fit Center  725 is at   1.704755  2.959673 -1.311496
      ESP Fit Center  726 is at   1.355987  3.183813 -1.311496
      ESP Fit Center  727 is at   0.958199  3.300614 -1.311496
      ESP Fit Center  728 is at   0.543618  3.300614 -1.311496
      ESP Fit Center  729 is at   0.145830  3.183813 -1.311496
      ESP Fit Center  730 is at  -0.202938  2.959673 -1.311496
      ESP Fit Center  731 is at  -0.474431  2.646354 -1.311496
      ESP Fit Center  732 is at  -0.646654  2.269237 -1.311496
      ESP Fit Center  733 is at   1.976248  1.071398 -1.311496
      ESP Fit Center  734 is at   2.148471  1.448515 -1.311496
      ESP Fit Center  735 is at   1.902968  1.858876 -1.585673
      ESP Fit Center  736 is at   1.825172  2.275048 -1.585673
      ESP Fit Center  737 is at   1.602291  2.635013 -1.585673
      ESP Fit Center  738 is at   1.264426  2.890157 -1.585673
      ESP Fit Center  739 is at   0.857207  3.006021 -1.585673
      ESP Fit Center  740 is at   0.435633  2.966956 -1.585673
      ESP Fit Center  741 is at   0.056638  2.778239 -1.585673
      ESP Fit Center  742 is at  -0.228592  2.465357 -1.585673
      ESP Fit Center  743 is at  -0.381534  2.070566 -1.585673
      ESP Fit Center  744 is at   1.602291  1.082739 -1.585673
      ESP Fit Center  745 is at   1.825172  1.442704 -1.585673
      ESP Fit Center  746 is at   1.548112  1.858876 -1.790549
      ESP Fit Center  747 is at   1.441307  2.257478 -1.790549
      ESP Fit Center  748 is at   1.149511  2.549275 -1.790549
      ESP Fit Center  749 is at   0.750909  2.656080 -1.790549
      ESP Fit Center  750 is at   0.352307  2.549275 -1.790549
      ESP Fit Center  751 is at   0.060510  2.257478 -1.790549
      ESP Fit Center  752 is at  -0.046295  1.858876 -1.790549
      ESP Fit Center  753 is at   1.149511  1.168477 -1.790549
      ESP Fit Center  754 is at   1.441307  1.460274 -1.790549
      ESP Fit Center  755 is at   1.158416  1.858876 -1.917169
      ESP Fit Center  756 is at   0.954662  2.211787 -1.917169
      ESP Fit Center  757 is at   0.547155  2.211787 -1.917169
      ESP Fit Center  758 is at   0.343402  1.858876 -1.917169
      ESP Fit Center  759 is at   0.547155  1.505965 -1.917169
      ESP Fit Center  760 is at   0.954662  1.505965 -1.917169
      ESP Fit Center  761 is at   0.750909  1.858876 -1.960000
      ESP Fit Center  762 is at  -0.833750 -0.747640  2.078461
      ESP Fit Center  763 is at  -1.153003 -1.015525  2.078461
      ESP Fit Center  764 is at  -1.361381 -1.376446  2.078461
      ESP Fit Center  765 is at  -1.430432 -0.813297  1.838507
      ESP Fit Center  766 is at  -1.762071 -1.576808  1.838507
      ESP Fit Center  767 is at  -1.762071 -1.996933  1.838507
      ESP Fit Center  768 is at  -1.961381 -2.415677  1.542690
      ESP Fit Center  769 is at  -2.051045 -2.795552  1.200000
      ESP Fit Center  770 is at  -1.810799 -3.140723  1.200000
      ESP Fit Center  771 is at  -2.238307 -2.820292  0.820848
      ESP Fit Center  772 is at  -2.006506 -3.180981  0.820848
      ESP Fit Center  773 is at  -1.710633 -3.491284  0.820848
      ESP Fit Center  774 is at  -1.361381 -3.739985  0.820848
      ESP Fit Center  775 is at  -2.145893 -3.176124  0.416756
      ESP Fit Center  776 is at  -1.867103 -3.495224  0.416756
      ESP Fit Center  777 is at  -1.535816 -3.759417  0.416756
      ESP Fit Center  778 is at  -1.162680 -3.960210  0.416756
      ESP Fit Center  779 is at  -0.759687 -4.091150  0.416756
      ESP Fit Center  780 is at  -0.339790 -4.148029  0.416756
      ESP Fit Center  781 is at   0.083516 -4.129019  0.416756
      ESP Fit Center  782 is at   0.886257 -3.868192  0.416756
      ESP Fit Center  783 is at   1.239892 -3.634759  0.416756
      ESP Fit Center  784 is at   1.546164 -3.341934  0.416756
      ESP Fit Center  785 is at   1.795227 -2.999128  0.416756
      ESP Fit Center  786 is at  -2.312211 -2.986871  0.000000
      ESP Fit Center  787 is at  -2.072257 -3.329561  0.000000
      ESP Fit Center  788 is at  -1.776440 -3.625377  0.000000
      ESP Fit Center  789 is at  -1.433750 -3.865331  0.000000
      ESP Fit Center  790 is at  -1.054598 -4.042133  0.000000
      ESP Fit Center  791 is at  -0.650506 -4.150409  0.000000
      ESP Fit Center  792 is at  -0.233750 -4.186871  0.000000
      ESP Fit Center  793 is at   0.183006 -4.150409  0.000000
      ESP Fit Center  794 is at   0.587098 -4.042133  0.000000
      ESP Fit Center  795 is at   0.966250 -3.865331  0.000000
      ESP Fit Center  796 is at   1.308940 -3.625377  0.000000
      ESP Fit Center  797 is at   1.604757 -3.329561  0.000000
      ESP Fit Center  798 is at   1.844711 -2.986871  0.000000
      ESP Fit Center  799 is at  -2.145893 -3.176124 -0.416756
      ESP Fit Center  800 is at  -1.867103 -3.495224 -0.416756
      ESP Fit Center  801 is at  -1.535816 -3.759417 -0.416756
      ESP Fit Center  802 is at  -1.162680 -3.960210 -0.416756
      ESP Fit Center  803 is at  -0.759687 -4.091150 -0.416756
      ESP Fit Center  804 is at  -0.339790 -4.148029 -0.416756
      ESP Fit Center  805 is at   0.083516 -4.129019 -0.416756
      ESP Fit Center  806 is at   0.886257 -3.868192 -0.416756
      ESP Fit Center  807 is at   1.239892 -3.634759 -0.416756
      ESP Fit Center  808 is at   1.546164 -3.341934 -0.416756
      ESP Fit Center  809 is at   1.795227 -2.999128 -0.416756
      ESP Fit Center  810 is at  -2.238307 -2.820292 -0.820848
      ESP Fit Center  811 is at  -2.006506 -3.180981 -0.820848
      ESP Fit Center  812 is at  -1.710633 -3.491284 -0.820848
      ESP Fit Center  813 is at  -1.361381 -3.739985 -0.820848
      ESP Fit Center  814 is at  -2.051045 -2.795552 -1.200000
      ESP Fit Center  815 is at  -1.810799 -3.140723 -1.200000
      ESP Fit Center  816 is at  -1.961381 -2.415677 -1.542690
      ESP Fit Center  817 is at  -1.430432 -0.813297 -1.838507
      ESP Fit Center  818 is at  -1.762071 -1.576808 -1.838507
      ESP Fit Center  819 is at  -1.762071 -1.996933 -1.838507
      ESP Fit Center  820 is at  -0.833750 -0.747640 -2.078461
      ESP Fit Center  821 is at  -1.153003 -1.015525 -2.078461
      ESP Fit Center  822 is at  -1.361381 -1.376446 -2.078461
      ESP Fit Center  823 is at  -1.883694 -0.972855  1.729860
      ESP Fit Center  824 is at  -1.995302 -1.389383  1.729860
      ESP Fit Center  825 is at  -2.287152 -0.979950  1.501116
      ESP Fit Center  826 is at  -2.359346 -1.389383  1.501116
      ESP Fit Center  827 is at  -2.287152 -1.798815  1.501116
      ESP Fit Center  828 is at  -2.079277 -2.158864  1.501116
      ESP Fit Center  829 is at  -2.602556 -0.966470  1.197100
      ESP Fit Center  830 is at  -2.663362 -1.389383  1.197100
      ESP Fit Center  831 is at  -2.602556 -1.812296  1.197100
      ESP Fit Center  832 is at  -2.425065 -2.200948  1.197100
      ESP Fit Center  833 is at  -2.841839 -0.975400  0.833057
      ESP Fit Center  834 is at  -2.892105 -1.389383  0.833057
      ESP Fit Center  835 is at  -2.841839 -1.803366  0.833057
      ESP Fit Center  836 is at  -2.693960 -2.193289  0.833057
      ESP Fit Center  837 is at  -2.457064 -2.536492  0.833057
      ESP Fit Center  838 is at  -2.987175 -0.972855  0.427240
      ESP Fit Center  839 is at  -3.034107 -1.389383  0.427240
      ESP Fit Center  840 is at  -2.987175 -1.805911  0.427240
      ESP Fit Center  841 is at  -2.848734 -2.201553  0.427240
      ESP Fit Center  842 is at  -2.625726 -2.556470  0.427240
      ESP Fit Center  843 is at  -2.981739 -0.776324  0.000000
      ESP Fit Center  844 is at  -3.070990 -1.181794  0.000000
      ESP Fit Center  845 is at  -3.070990 -1.596971  0.000000
      ESP Fit Center  846 is at  -2.981739 -2.002442  0.000000
      ESP Fit Center  847 is at  -2.807411 -2.379246  0.000000
      ESP Fit Center  848 is at  -2.556157 -2.709766  0.000000
      ESP Fit Center  849 is at  -2.987175 -0.972855 -0.427240
      ESP Fit Center  850 is at  -3.034107 -1.389383 -0.427240
      ESP Fit Center  851 is at  -2.987175 -1.805911 -0.427240
      ESP Fit Center  852 is at  -2.848734 -2.201553 -0.427240
      ESP Fit Center  853 is at  -2.625726 -2.556470 -0.427240
      ESP Fit Center  854 is at  -2.841839 -0.975400 -0.833057
      ESP Fit Center  855 is at  -2.892105 -1.389383 -0.833057
      ESP Fit Center  856 is at  -2.841839 -1.803366 -0.833057
      ESP Fit Center  857 is at  -2.693960 -2.193289 -0.833057
      ESP Fit Center  858 is at  -2.457064 -2.536492 -0.833057
      ESP Fit Center  859 is at  -2.602556 -0.966470 -1.197100
      ESP Fit Center  860 is at  -2.663362 -1.389383 -1.197100
      ESP Fit Center  861 is at  -2.602556 -1.812296 -1.197100
      ESP Fit Center  862 is at  -2.425065 -2.200948 -1.197100
      ESP Fit Center  863 is at  -2.287152 -0.979950 -1.501116
      ESP Fit Center  864 is at  -2.359346 -1.389383 -1.501116
      ESP Fit Center  865 is at  -2.287152 -1.798815 -1.501116
      ESP Fit Center  866 is at  -2.079277 -2.158864 -1.501116
      ESP Fit Center  867 is at  -1.883694 -0.972855 -1.729860
      ESP Fit Center  868 is at  -1.995302 -1.389383 -1.729860
      ESP Fit Center  869 is at   0.011255 -0.287459  2.255262
      ESP Fit Center  870 is at  -0.098718 -0.697884  2.255262
      ESP Fit Center  871 is at   2.751107  0.514374  0.416756
      ESP Fit Center  872 is at   2.195773 -2.545772  0.416756
      ESP Fit Center  873 is at   2.502044 -2.252947  0.416756
      ESP Fit Center  874 is at   3.122131 -0.697884  0.000000
      ESP Fit Center  875 is at   3.085669 -0.281128  0.000000
      ESP Fit Center  876 is at   2.977393  0.122965  0.000000
      ESP Fit Center  877 is at   2.800591  0.502116  0.000000
      ESP Fit Center  878 is at   2.264821 -2.536390  0.000000
      ESP Fit Center  879 is at   2.560637 -2.240574  0.000000
      ESP Fit Center  880 is at   2.800591 -1.897884  0.000000
      ESP Fit Center  881 is at   2.977393 -1.518732  0.000000
      ESP Fit Center  882 is at   3.085669 -1.114639  0.000000
      ESP Fit Center  883 is at   2.751107  0.514374 -0.416756
      ESP Fit Center  884 is at   2.195773 -2.545772 -0.416756
      ESP Fit Center  885 is at   2.502044 -2.252947 -0.416756
      ESP Fit Center  886 is at   0.011255 -0.287459 -2.255262
[...]
 3075 Fit      -0.043303
 3076 Fit      -0.038187
 3077 Fit       0.007887
 3078 Fit       0.022031
 3079 Fit      -0.055822
 3080 Fit      -0.051876
 3081 Fit      -0.055822
 3082 Fit      -0.051876
 3083 Fit      -0.023150
 3084 Fit      -0.046747
 3085 Fit      -0.046367
 3086 Fit      -0.043303
 3087 Fit      -0.038187
 3088 Fit       0.007887
 3089 Fit       0.022031
 3090 Fit      -0.008137
 3091 Fit      -0.021944
 3092 Fit      -0.031411
 3093 Fit      -0.034823
 3094 Fit      -0.032773
 3095 Fit      -0.026307
 3096 Fit      -0.015779
 3097 Fit      -0.002247
 3098 Fit       0.010679
 3099 Fit       0.017761
 3100 Fit      -0.008663
 3101 Fit      -0.020410
 3102 Fit      -0.021694
 3103 Fit      -0.012325
 3104 Fit       0.000198
 3105 Fit       0.002440
 3106 Fit      -0.010003
 3107 Fit       0.028143
 3108 Fit       0.026107
 3109 Fit       0.019943
 3110 Fit       0.021445
 3111 Fit       0.030582
 3112 Fit       0.037027
 3113 Fit       0.033965
 3114 Fit       0.024388
 3115 Fit       0.017364
 3116 Fit       0.011929
 3117 Fit       0.010107
 3118 Fit       0.013642
 3119 Fit       0.022276
 3120 Fit       0.033516
 3121 Fit       0.043185
 3122 Fit       0.047227
 3123 Fit       0.044997
 3124 Fit       0.039063
 3125 Fit       0.031830
 3126 Fit       0.022916
 3127 Fit       0.016112
 3128 Fit       0.009470
 3129 Fit       0.003676
 3130 Fit       0.000023
 3131 Fit       0.000011
 3132 Fit       0.004411
 3133 Fit       0.012801
 3134 Fit       0.024155
 3135 Fit       0.037027
 3136 Fit       0.056574
 3137 Fit       0.050523
 3138 Fit       0.043539
 3139 Fit       0.036539
 3140 Fit       0.029698
 3141 Fit       0.021643
 3142 Fit       0.014895
 3143 Fit       0.007809
 3144 Fit       0.000547
 3145 Fit      -0.006276
 3146 Fit      -0.011442
 3147 Fit      -0.013339
 3148 Fit       0.056721
 3149 Fit       0.048725
 3150 Fit       0.041413
 3151 Fit       0.034646
 3152 Fit       0.028151
 3153 Fit       0.020546
 3154 Fit       0.013728
 3155 Fit       0.006280
 3156 Fit      -0.001912
 3157 Fit      -0.010694
 3158 Fit      -0.019386
 3159 Fit       0.055076
 3160 Fit       0.046959
 3161 Fit       0.039830
 3162 Fit       0.033288
 3163 Fit       0.026970
 3164 Fit       0.019626
 3165 Fit       0.012867
 3166 Fit       0.005310
 3167 Fit      -0.003334
 3168 Fit      -0.013268
 3169 Fit      -0.024440
 3170 Fit       0.061399
 3171 Fit       0.052426
 3172 Fit       0.044856
 3173 Fit       0.038172
 3174 Fit       0.031966
 3175 Fit       0.025890
 3176 Fit       0.018911
 3177 Fit       0.011871
 3178 Fit       0.003816
 3179 Fit      -0.005709
 3180 Fit      -0.017220
 3181 Fit       0.061085
 3182 Fit       0.052044
 3183 Fit       0.044452
 3184 Fit       0.037748
 3185 Fit       0.031498
 3186 Fit       0.025335
 3187 Fit       0.018471
 3188 Fit       0.011279
 3189 Fit       0.002924
 3190 Fit      -0.007183
 3191 Fit      -0.019831
 3192 Fit       0.060143
 3193 Fit       0.051377
 3194 Fit       0.043949
 3195 Fit       0.037338
 3196 Fit       0.031129
 3197 Fit       0.024959
 3198 Fit       0.018417
 3199 Fit       0.010988
 3200 Fit       0.002237
 3201 Fit      -0.008565
 3202 Fit      -0.022497
 3203 Fit       0.051814
 3204 Fit       0.044316
 3205 Fit       0.037628
 3206 Fit       0.031334
 3207 Fit       0.025057
 3208 Fit       0.018934
 3209 Fit       0.010955
 3210 Fit       0.032640
 3211 Fit       0.025989
 3212 Fit       0.018934
 3213 Fit       0.010955
 3214 Fit       0.032640
 3215 Fit       0.025989
 3216 Fit       0.018417
 3217 Fit       0.010988
 3218 Fit       0.002237
 3219 Fit      -0.008565
 3220 Fit      -0.022497
 3221 Fit       0.051814
 3222 Fit       0.044316
 3223 Fit       0.037628
 3224 Fit       0.031334
 3225 Fit       0.025057
 3226 Fit       0.018471
 3227 Fit       0.011279
 3228 Fit       0.002924
 3229 Fit      -0.007183
 3230 Fit      -0.019831
 3231 Fit       0.060143
 3232 Fit       0.051377
 3233 Fit       0.043949
 3234 Fit       0.037338
 3235 Fit       0.031129
 3236 Fit       0.024959
 3237 Fit       0.018911
 3238 Fit       0.011871
 3239 Fit       0.003816
 3240 Fit      -0.005709
 3241 Fit      -0.017220
 3242 Fit       0.061085
 3243 Fit       0.052044
 3244 Fit       0.044452
 3245 Fit       0.037748
 3246 Fit       0.031498
 3247 Fit       0.025335
 3248 Fit       0.019626
 3249 Fit       0.012867
 3250 Fit       0.005310
 3251 Fit      -0.003334
 3252 Fit      -0.013268
 3253 Fit      -0.024440
 3254 Fit       0.061399
 3255 Fit       0.052426
 3256 Fit       0.044856
 3257 Fit       0.038172
 3258 Fit       0.031966
 3259 Fit       0.025890
 3260 Fit       0.020546
 3261 Fit       0.013728
 3262 Fit       0.006280
 3263 Fit      -0.001912
 3264 Fit      -0.010694
 3265 Fit      -0.019386
 3266 Fit       0.055076
 3267 Fit       0.046959
 3268 Fit       0.039830
 3269 Fit       0.033288
 3270 Fit       0.026970
 3271 Fit       0.021643
 3272 Fit       0.014895
 3273 Fit       0.007809
 3274 Fit       0.000547
 3275 Fit      -0.006276
 3276 Fit      -0.011442
 3277 Fit      -0.013339
 3278 Fit       0.056721
 3279 Fit       0.048725
 3280 Fit       0.041413
 3281 Fit       0.034646
 3282 Fit       0.028151
 3283 Fit       0.022916
 3284 Fit       0.016112
 3285 Fit       0.009470
 3286 Fit       0.003676
 3287 Fit       0.000023
 3288 Fit       0.000011
 3289 Fit       0.004411
 3290 Fit       0.012801
 3291 Fit       0.024155
 3292 Fit       0.037027
 3293 Fit       0.056574
 3294 Fit       0.050523
 3295 Fit       0.043539
 3296 Fit       0.036539
 3297 Fit       0.029698
 3298 Fit       0.024388
 3299 Fit       0.017364
 3300 Fit       0.011929
 3301 Fit       0.010107
 3302 Fit       0.013642
 3303 Fit       0.022276
 3304 Fit       0.033516
 3305 Fit       0.043185
 3306 Fit       0.047227
 3307 Fit       0.044997
 3308 Fit       0.039063
 3309 Fit       0.031830
 3310 Fit       0.026107
 3311 Fit       0.019943
 3312 Fit       0.021445
 3313 Fit       0.030582
 3314 Fit       0.037027
 3315 Fit       0.033965
 3316 Fit       0.028143
 3317 Fit      -0.021007
 3318 Fit      -0.030924
 3319 Fit      -0.023236
 3320 Fit      -0.012598
 3321 Fit      -0.041822
 3322 Fit      -0.039181
 3323 Fit      -0.033437
 3324 Fit      -0.025284
 3325 Fit      -0.015155
 3326 Fit      -0.004302
 3327 Fit       0.004091
 3328 Fit      -0.049966
 3329 Fit      -0.046059
 3330 Fit      -0.040927
 3331 Fit      -0.034652
 3332 Fit      -0.027089
 3333 Fit      -0.018035
 3334 Fit      -0.007449
 3335 Fit       0.004142
 3336 Fit       0.015135
 3337 Fit      -0.060323
 3338 Fit      -0.056257
 3339 Fit      -0.051763
 3340 Fit      -0.046896
 3341 Fit      -0.041549
 3342 Fit      -0.035539
 3343 Fit      -0.028625
 3344 Fit      -0.020523
 3345 Fit      -0.010947
 3346 Fit       0.000262
 3347 Fit       0.012904
 3348 Fit      -0.070180
 3349 Fit      -0.064791
 3350 Fit      -0.059712
 3351 Fit      -0.054826
 3352 Fit      -0.049938
 3353 Fit      -0.044852
 3354 Fit      -0.039365
 3355 Fit      -0.033257
 3356 Fit      -0.026260
 3357 Fit      -0.018054
 3358 Fit      -0.008282
 3359 Fit       0.003380
 3360 Fit       0.017076
 3361 Fit      -0.071473
 3362 Fit      -0.065512
 3363 Fit      -0.060216
 3364 Fit      -0.055258
 3365 Fit      -0.050379
 3366 Fit      -0.045365
 3367 Fit      -0.040019
 3368 Fit      -0.034124
 3369 Fit      -0.027420
 3370 Fit      -0.019579
 3371 Fit      -0.010194
 3372 Fit       0.001197
 3373 Fit      -0.077359
 3374 Fit      -0.070599
 3375 Fit      -0.064901
 3376 Fit      -0.059818
 3377 Fit      -0.055034
 3378 Fit      -0.050317
 3379 Fit      -0.045480
 3380 Fit      -0.040348
 3381 Fit      -0.034725
 3382 Fit      -0.028371
 3383 Fit      -0.020979
 3384 Fit      -0.012147
 3385 Fit      -0.001371
 3386 Fit      -0.080043
 3387 Fit      -0.072953
 3388 Fit      -0.067093
 3389 Fit      -0.061958
 3390 Fit      -0.057209
 3391 Fit      -0.052608
 3392 Fit      -0.047974
 3393 Fit      -0.043147
 3394 Fit      -0.037957
 3395 Fit      -0.032205
 3396 Fit      -0.025631
 3397 Fit      -0.017895
 3398 Fit      -0.008541
 3399 Fit       0.003037
 3400 Fit      -0.085253
 3401 Fit      -0.077041
 3402 Fit      -0.070511
 3403 Fit      -0.064983
 3404 Fit      -0.060017
 3405 Fit      -0.055325
 3406 Fit      -0.050698
 3407 Fit      -0.045968
 3408 Fit      -0.040970
 3409 Fit      -0.035521
 3410 Fit      -0.029386
 3411 Fit      -0.022255
 3412 Fit      -0.013703
 3413 Fit      -0.003143
 3414 Fit      -0.080377
 3415 Fit      -0.073297
 3416 Fit      -0.067452
 3417 Fit      -0.062325
 3418 Fit      -0.057580
 3419 Fit      -0.052987
 3420 Fit      -0.048369
 3421 Fit      -0.043571
 3422 Fit      -0.038424
 3423 Fit      -0.032729
 3424 Fit      -0.026219
 3425 Fit      -0.018537
 3426 Fit      -0.009185
 3427 Fit       0.002542
 3428 Fit      -0.080377
 3429 Fit      -0.073297
 3430 Fit      -0.067452
 3431 Fit      -0.062325
 3432 Fit      -0.057580
 3433 Fit      -0.052987
 3434 Fit      -0.048369
 3435 Fit      -0.043571
 3436 Fit      -0.038424
 3437 Fit      -0.032729
 3438 Fit      -0.026219
 3439 Fit      -0.018537
 3440 Fit      -0.009185
 3441 Fit       0.002542
 3442 Fit      -0.085253
 3443 Fit      -0.077041
 3444 Fit      -0.070511
 3445 Fit      -0.064983
 3446 Fit      -0.060017
 3447 Fit      -0.055325
 3448 Fit      -0.050698
 3449 Fit      -0.045968
 3450 Fit      -0.040970
 3451 Fit      -0.035521
 3452 Fit      -0.029386
 3453 Fit      -0.022255
 3454 Fit      -0.013703
 3455 Fit      -0.003143
 3456 Fit      -0.080043
 3457 Fit      -0.072953
 3458 Fit      -0.067093
 3459 Fit      -0.061958
 3460 Fit      -0.057209
 3461 Fit      -0.052608
 3462 Fit      -0.047974
 3463 Fit      -0.043147
 3464 Fit      -0.037957
 3465 Fit      -0.032205
 3466 Fit      -0.025631
 3467 Fit      -0.017895
 3468 Fit      -0.008541
 3469 Fit       0.003037
 3470 Fit      -0.077359
 3471 Fit      -0.070599
 3472 Fit      -0.064901
 3473 Fit      -0.059818
 3474 Fit      -0.055034
 3475 Fit      -0.050317
 3476 Fit      -0.045480
 3477 Fit      -0.040348
 3478 Fit      -0.034725
 3479 Fit      -0.028371
 3480 Fit      -0.020979
 3481 Fit      -0.012147
 3482 Fit      -0.001371
 3483 Fit      -0.071473
 3484 Fit      -0.065512
 3485 Fit      -0.060216
 3486 Fit      -0.055258
 3487 Fit      -0.050379
 3488 Fit      -0.045365
 3489 Fit      -0.040019
 3490 Fit      -0.034124
 3491 Fit      -0.027420
 3492 Fit      -0.019579
 3493 Fit      -0.010194
 3494 Fit       0.001197
 3495 Fit      -0.070180
 3496 Fit      -0.064791
 3497 Fit      -0.059712
 3498 Fit      -0.054826
 3499 Fit      -0.049938
 3500 Fit      -0.044852
 3501 Fit      -0.039365
 3502 Fit      -0.033257
 3503 Fit      -0.026260
 3504 Fit      -0.018054
 3505 Fit      -0.008282
 3506 Fit       0.003380
 3507 Fit       0.017076
 3508 Fit      -0.060323
 3509 Fit      -0.056257
 3510 Fit      -0.051763
 3511 Fit      -0.046896
 3512 Fit      -0.041549
 3513 Fit      -0.035539
 3514 Fit      -0.028625
 3515 Fit      -0.020523
 3516 Fit      -0.010947
 3517 Fit       0.000262
 3518 Fit       0.012904
 3519 Fit      -0.049966
 3520 Fit      -0.046059
 3521 Fit      -0.040927
 3522 Fit      -0.034652
 3523 Fit      -0.027089
 3524 Fit      -0.018035
 3525 Fit      -0.007449
 3526 Fit       0.004142
 3527 Fit       0.015135
 3528 Fit      -0.041822
 3529 Fit      -0.039181
 3530 Fit      -0.033437
 3531 Fit      -0.025284
 3532 Fit      -0.015155
 3533 Fit      -0.004302
 3534 Fit       0.004091
 3535 Fit      -0.030924
 3536 Fit      -0.023236
 3537 Fit      -0.012598
 3538 Fit      -0.021007
 3539 Fit      -0.045294
 3540 Fit      -0.044320
 3541 Fit      -0.050896
 3542 Fit      -0.052279
 3543 Fit      -0.046981
 3544 Fit      -0.037142
 3545 Fit      -0.043848
 3546 Fit      -0.050670
 3547 Fit      -0.055333
 3548 Fit      -0.057896
 3549 Fit      -0.058238
 3550 Fit      -0.055794
 3551 Fit      -0.035395
 3552 Fit      -0.043733
 3553 Fit      -0.050285
 3554 Fit      -0.055201
 3555 Fit      -0.058790
 3556 Fit      -0.061304
 3557 Fit      -0.062834
 3558 Fit      -0.063287
 3559 Fit      -0.062372
 3560 Fit      -0.059531
 3561 Fit      -0.025761
 3562 Fit      -0.035402
 3563 Fit      -0.043872
 3564 Fit      -0.050061
 3565 Fit      -0.054841
 3566 Fit      -0.058539
 3567 Fit      -0.061434
 3568 Fit      -0.063721
 3569 Fit      -0.065501
 3570 Fit      -0.066787
 3571 Fit      -0.067523
 3572 Fit      -0.067586
 3573 Fit      -0.066747
 3574 Fit      -0.026168
 3575 Fit      -0.035961
 3576 Fit      -0.044181
 3577 Fit      -0.050142
 3578 Fit      -0.054783
 3579 Fit      -0.058433
 3580 Fit      -0.061365
 3581 Fit      -0.063787
 3582 Fit      -0.065842
 3583 Fit      -0.067610
 3584 Fit      -0.069118
 3585 Fit      -0.070358
 3586 Fit      -0.071308
 3587 Fit      -0.071941
 3588 Fit      -0.072199
 3589 Fit      -0.026792
 3590 Fit      -0.036530
 3591 Fit      -0.044586
 3592 Fit      -0.050378
 3593 Fit      -0.054897
 3594 Fit      -0.058468
 3595 Fit      -0.061355
 3596 Fit      -0.063769
 3597 Fit      -0.065865
 3598 Fit      -0.067747
 3599 Fit      -0.069470
 3600 Fit      -0.071058
 3601 Fit      -0.072517
 3602 Fit      -0.073858
 3603 Fit      -0.075122
 3604 Fit      -0.076394
 3605 Fit      -0.027526
 3606 Fit      -0.037131
 3607 Fit      -0.045016
 3608 Fit      -0.050545
 3609 Fit      -0.054887
 3610 Fit      -0.058337
 3611 Fit      -0.061138
 3612 Fit      -0.063486
 3613 Fit      -0.065537
 3614 Fit      -0.067400
 3615 Fit      -0.069148
 3616 Fit      -0.070820
 3617 Fit      -0.072436
 3618 Fit      -0.074004
 3619 Fit      -0.075551
 3620 Fit      -0.077139
 3621 Fit      -0.078901
 3622 Fit      -0.081076
 3623 Fit      -0.028848
 3624 Fit      -0.037938
 3625 Fit      -0.045405
 3626 Fit      -0.050739
 3627 Fit      -0.054946
 3628 Fit      -0.058299
 3629 Fit      -0.061024
 3630 Fit      -0.063310
 3631 Fit      -0.065304
 3632 Fit      -0.067121
 3633 Fit      -0.068841
 3634 Fit      -0.070511
 3635 Fit      -0.072157
 3636 Fit      -0.073794
 3637 Fit      -0.075435
 3638 Fit      -0.077118
 3639 Fit      -0.078928
 3640 Fit      -0.081039
 3641 Fit      -0.083768
 3642 Fit      -0.029936
 3643 Fit      -0.038611
 3644 Fit      -0.045698
 3645 Fit      -0.051013
 3646 Fit      -0.055193
 3647 Fit      -0.058514
 3648 Fit      -0.061206
 3649 Fit      -0.063460
 3650 Fit      -0.065428
 3651 Fit      -0.067229
 3652 Fit      -0.068946
 3653 Fit      -0.070631
 3654 Fit      -0.072314
 3655 Fit      -0.074009
 3656 Fit      -0.075731
 3657 Fit      -0.077514
 3658 Fit      -0.079440
 3659 Fit      -0.081679
 3660 Fit      -0.084558
 3661 Fit      -0.030255
 3662 Fit      -0.038915
 3663 Fit      -0.045854
 3664 Fit      -0.051099
 3665 Fit      -0.055230
 3666 Fit      -0.058515
 3667 Fit      -0.061178
 3668 Fit      -0.063406
 3669 Fit      -0.065350
 3670 Fit      -0.067128
 3671 Fit      -0.068824
 3672 Fit      -0.070494
 3673 Fit      -0.072169
 3674 Fit      -0.073865
 3675 Fit      -0.075595
 3676 Fit      -0.077387
 3677 Fit      -0.079307
 3678 Fit      -0.081498
 3679 Fit      -0.084242
 3680 Fit      -0.030685
 3681 Fit      -0.039178
 3682 Fit      -0.045854
 3683 Fit      -0.051099
 3684 Fit      -0.055230
 3685 Fit      -0.058515
 3686 Fit      -0.061178
 3687 Fit      -0.063406
 3688 Fit      -0.065350
 3689 Fit      -0.067128
 3690 Fit      -0.068824
 3691 Fit      -0.070494
 3692 Fit      -0.072169
 3693 Fit      -0.073865
 3694 Fit      -0.075595
 3695 Fit      -0.077387
 3696 Fit      -0.079307
 3697 Fit      -0.081498
 3698 Fit      -0.084242
 3699 Fit      -0.030685
 3700 Fit      -0.039178
 3701 Fit      -0.045698
 3702 Fit      -0.051013
 3703 Fit      -0.055193
 3704 Fit      -0.058514
 3705 Fit      -0.061206
 3706 Fit      -0.063460
 3707 Fit      -0.065428
 3708 Fit      -0.067229
 3709 Fit      -0.068946
 3710 Fit      -0.070631
 3711 Fit      -0.072314
 3712 Fit      -0.074009
 3713 Fit      -0.075731
 3714 Fit      -0.077514
 3715 Fit      -0.079440
 3716 Fit      -0.081679
 3717 Fit      -0.084558
 3718 Fit      -0.030255
 3719 Fit      -0.038915
 3720 Fit      -0.045405
 3721 Fit      -0.050739
 3722 Fit      -0.054946
 3723 Fit      -0.058299
 3724 Fit      -0.061024
 3725 Fit      -0.063310
 3726 Fit      -0.065304
 3727 Fit      -0.067121
 3728 Fit      -0.068841
 3729 Fit      -0.070511
 3730 Fit      -0.072157
 3731 Fit      -0.073794
 3732 Fit      -0.075435
 3733 Fit      -0.077118
 3734 Fit      -0.078928
 3735 Fit      -0.081039
 3736 Fit      -0.083768
 3737 Fit      -0.029936
 3738 Fit      -0.038611
 3739 Fit      -0.045016
 3740 Fit      -0.050545
 3741 Fit      -0.054887
 3742 Fit      -0.058337
 3743 Fit      -0.061138
 3744 Fit      -0.063486
 3745 Fit      -0.065537
 3746 Fit      -0.067400
 3747 Fit      -0.069148
 3748 Fit      -0.070820
 3749 Fit      -0.072436
 3750 Fit      -0.074004
 3751 Fit      -0.075551
 3752 Fit      -0.077139
 3753 Fit      -0.078901
 3754 Fit      -0.081076
 3755 Fit      -0.028848
 3756 Fit      -0.037938
 3757 Fit      -0.044586
 3758 Fit      -0.050378
 3759 Fit      -0.054897
 3760 Fit      -0.058468
 3761 Fit      -0.061355
 3762 Fit      -0.063769
 3763 Fit      -0.065865
 3764 Fit      -0.067747
 3765 Fit      -0.069470
 3766 Fit      -0.071058
 3767 Fit      -0.072517
 3768 Fit      -0.073858
 3769 Fit      -0.075122
 3770 Fit      -0.076394
 3771 Fit      -0.027526
 3772 Fit      -0.037131
 3773 Fit      -0.044181
 3774 Fit      -0.050142
 3775 Fit      -0.054783
 3776 Fit      -0.058433
 3777 Fit      -0.061365
 3778 Fit      -0.063787
 3779 Fit      -0.065842
 3780 Fit      -0.067610
 3781 Fit      -0.069118
 3782 Fit      -0.070358
 3783 Fit      -0.071308
 3784 Fit      -0.071941
 3785 Fit      -0.072199
 3786 Fit      -0.026792
 3787 Fit      -0.036530
 3788 Fit      -0.043872
 3789 Fit      -0.050061
 3790 Fit      -0.054841
 3791 Fit      -0.058539
 3792 Fit      -0.061434
 3793 Fit      -0.063721
 3794 Fit      -0.065501
 3795 Fit      -0.066787
 3796 Fit      -0.067523
 3797 Fit      -0.067586
 3798 Fit      -0.066747
 3799 Fit      -0.026168
 3800 Fit      -0.035961
 3801 Fit      -0.043733
 3802 Fit      -0.050285
 3803 Fit      -0.055201
 3804 Fit      -0.058790
 3805 Fit      -0.061304
 3806 Fit      -0.062834
 3807 Fit      -0.063287
 3808 Fit      -0.062372
 3809 Fit      -0.059531
 3810 Fit      -0.025761
 3811 Fit      -0.035402
 3812 Fit      -0.043848
 3813 Fit      -0.050670
 3814 Fit      -0.055333
 3815 Fit      -0.057896
 3816 Fit      -0.058238
 3817 Fit      -0.055794
 3818 Fit      -0.035395
 3819 Fit      -0.044320
 3820 Fit      -0.050896
 3821 Fit      -0.052279
 3822 Fit      -0.046981
 3823 Fit      -0.037142
 3824 Fit      -0.045294
 -----------------------------------------------------------------
 Leave Link  602 at Tue Mar 27 08:14:45 2018, MaxMem=   104857600 cpu:               0.2 elap:               0.4

 Test job not archived.
 1\1\GINC-KEPLER06\SP\RHF\6-31G(d)\C2H5N1O2\NORIWO\27-Mar-2018\0\\# hf/
 6-31g(d) geom=connectivity iop(6/33=2,6/42=6,6/50=1) pop=mk scf=tight 
 test\\Glycine\\0,1\N,0,0.85574373,-1.1693172,0.\H,0,1.81577633,-0.8555
 6984,0.\C,0,0.,0.,0.\H,0,0.66736703,-1.63786714,-0.874686\H,0,0.667367
 03,-1.63786714,0.874686\C,0,0.83787925,1.27060798,0.\H,0,-0.62945942,-
 0.0097818,-0.889823\H,0,-0.62945942,-0.0097818,0.889823\O,0,2.09406193
 ,1.19593025,0.\O,0,0.19763128,2.54927233,0.\\Version=ES64L-G16RevA.03\
 State=1-A'\HF=-282.7087728\RMSD=4.593e-09\Dipole=-0.761207,-5.2601553,
 0.\Quadrupole=-3.1677576,0.5729741,2.5947835,1.138212,0.,0.\PG=CS [SG(
 C2H1N1O2),X(H4)]\\@


 Spring appears, and we are once more children.
                                  -- Anonymous
 Job cpu time:       0 days  0 hours  0 minutes  2.1 seconds.
 Elapsed time:       0 days  0 hours  0 minutes  2.7 seconds.
 File lengths (MBytes):  RWF=      6 Int=      0 D2E=      0 Chk=      2 Scr=      1
 Normal termination of Gaussian 16 at Tue Mar 27 08:14:46 2018.
