 Entering Gaussian System, Link 0=g16
 Input=glycine.gjf
 Output=glycine.log
 Initial command:
 /usr/local/g16/l1.exe "/work/noriwo/Gau-31208.inp" -scrdir="/work/noriwo/"
 Entering Link 1 = /usr/local/g16/l1.exe PID=     31209.
  
 Copyright (c) 1988-2019, Gaussian, Inc.  All Rights Reserved.
  
 This is part of the Gaussian(R) 16 program.  It is based on
 the Gaussian(R) 09 system (copyright 2009, Gaussian, Inc.),
 the Gaussian(R) 03 system (copyright 2003, Gaussian, Inc.),
 the Gaussian(R) 98 system (copyright 1998, Gaussian, Inc.),
 the Gaussian(R) 94 system (copyright 1995, Gaussian, Inc.),
 the Gaussian 92(TM) system (copyright 1992, Gaussian, Inc.),
 the Gaussian 90(TM) system (copyright 1990, Gaussian, Inc.),
 the Gaussian 88(TM) system (copyright 1988, Gaussian, Inc.),
 the Gaussian 86(TM) system (copyright 1986, Carnegie Mellon
 University), and the Gaussian 82(TM) system (copyright 1983,
 Carnegie Mellon University). Gaussian is a federally registered
 trademark of Gaussian, Inc.
  
 This software contains proprietary and confidential information,
 including trade secrets, belonging to Gaussian, Inc.
  
 This software is provided under written license and may be
 used, copied, transmitted, or stored only in accord with that
 written license.
  
 The following legend is applicable only to US Government
 contracts under FAR:
  
                    RESTRICTED RIGHTS LEGEND
  
 Use, reproduction and disclosure by the US Government is
 subject to restrictions as set forth in subparagraphs (a)
 and (c) of the Commercial Computer Software - Restricted
 Rights clause in FAR 52.227-19.
  
 Gaussian, Inc.
 340 Quinnipiac St., Bldg. 40, Wallingford CT 06492
  
  
 ---------------------------------------------------------------
 Warning -- This program may not be used in any manner that
 competes with the business of Gaussian, Inc. or will provide
 assistance to any competitor of Gaussian, Inc.  The licensee
 of this program is prohibited from giving any competitor of
 Gaussian, Inc. access to this program.  By using this program,
 the user acknowledges that Gaussian, Inc. is engaged in the
 business of creating and licensing software in the field of
 computational chemistry and represents and warrants to the
 licensee that it is not a competitor of Gaussian, Inc. and that
 it will not use this program in any manner prohibited above.
 ---------------------------------------------------------------
  

 Cite this work as:
 Gaussian 16, Revision C.01,
 M. J. Frisch, G. W. Trucks, H. B. Schlegel, G. E. Scuseria, 
 M. A. Robb, J. R. Cheeseman, G. Scalmani, V. Barone, 
 G. A. Petersson, H. Nakatsuji, X. Li, M. Caricato, A. V. Marenich, 
 J. Bloino, B. G. Janesko, R. Gomperts, B. Mennucci, H. P. Hratchian, 
 J. V. Ortiz, A. F. Izmaylov, J. L. Sonnenberg, D. Williams-Young, 
 F. Ding, F. Lipparini, F. Egidi, J. Goings, B. Peng, A. Petrone, 
 T. Henderson, D. Ranasinghe, V. G. Zakrzewski, J. Gao, N. Rega, 
 G. Zheng, W. Liang, M. Hada, M. Ehara, K. Toyota, R. Fukuda, 
 J. Hasegawa, M. Ishida, T. Nakajima, Y. Honda, O. Kitao, H. Nakai, 
 T. Vreven, K. Throssell, J. A. Montgomery, Jr., J. E. Peralta, 
 F. Ogliaro, M. J. Bearpark, J. J. Heyd, E. N. Brothers, K. N. Kudin, 
 V. N. Staroverov, T. A. Keith, R. Kobayashi, J. Normand, 
 K. Raghavachari, A. P. Rendell, J. C. Burant, S. S. Iyengar, 
 J. Tomasi, M. Cossi, J. M. Millam, M. Klene, C. Adamo, R. Cammi, 
 J. W. Ochterski, R. L. Martin, K. Morokuma, O. Farkas, 
 J. B. Foresman, and D. J. Fox, Gaussian, Inc., Wallingford CT, 2019.
 
 ******************************************
 Gaussian 16:  ES64L-G16RevC.01  3-Jul-2019
                 6-Sep-2023 
 ******************************************
 %chk=glycine.chk
 ----------------------------------------------------------------------
 # hf/6-31g(d) geom=connectivity iop(6/33=2,6/42=6,6/50=1) pop=mk scf=t
 ight nosymm
 ----------------------------------------------------------------------
 1/38=1,57=2,172=1/1;
 2/12=2,15=1,17=6,18=5,40=1/2;
 3/5=1,6=6,7=1,11=9,25=1,30=1/1,2,3;
 4//1;
 5/5=2,32=2,38=5/2;
 6/7=2,8=2,9=2,10=2,15=8,20=1,28=1,33=2,42=6,50=1/1,2;
 99/5=1,9=1/99;
 -------
 Glycine
 -------
 Symbolic Z-matrix:
 Charge =  0 Multiplicity = 1
 N                     0.85574  -1.16932   0. 
 H                     1.81578  -0.85557   0. 
 C                     0.        0.        0. 
 H                     0.66737  -1.63787  -0.87469 
 H                     0.66737  -1.63787   0.87469 
 C                     0.83788   1.27061   0. 
 H                    -0.62946  -0.00978  -0.88982 
 H                    -0.62946  -0.00978   0.88982 
 O                     2.09406   1.19593   0. 
 O                     0.19763   2.54927   0. 
 
                          Input orientation:                          
 ---------------------------------------------------------------------
 Center     Atomic      Atomic             Coordinates (Angstroms)
 Number     Number       Type             X           Y           Z
 ---------------------------------------------------------------------
      1          7           0        0.855744   -1.169317    0.000000
      2          1           0        1.815776   -0.855570    0.000000
      3          6           0        0.000000    0.000000    0.000000
      4          1           0        0.667367   -1.637867   -0.874686
      5          1           0        0.667367   -1.637867    0.874686
      6          6           0        0.837879    1.270608    0.000000
      7          1           0       -0.629459   -0.009782   -0.889823
      8          1           0       -0.629459   -0.009782    0.889823
      9          8           0        2.094062    1.195930    0.000000
     10          8           0        0.197631    2.549272    0.000000
 ---------------------------------------------------------------------
                    Distance matrix (angstroms):
                    1          2          3          4          5
     1  N    0.000000
     2  H    1.010000   0.000000
     3  C    1.449000   2.007248   0.000000
     4  H    1.010000   1.641922   1.973085   0.000000
     5  H    1.010000   1.641922   1.973085   1.749372   0.000000
     6  C    2.439991   2.340281   1.522001   3.041936   3.041936
     7  H    2.083779   2.736114   1.090000   2.081502   2.728720
     8  H    2.083779   2.736114   1.090000   2.728720   2.081502
     9  O    2.669799   2.070289   2.411503   3.291040   3.291040
    10  O    3.776377   3.769794   2.556921   4.303239   4.303239
                    6          7          8          9         10
     6  C    0.000000
     7  H    2.141090   0.000000
     8  H    2.141090   1.779646   0.000000
     9  O    1.258400   3.108552   3.108552   0.000000
    10  O    1.430000   2.832776   2.832776   2.329803   0.000000
 Symmetry turned off by external request.
 Stoichiometry    C2H5NO2
 Framework group  CS[SG(C2HNO2),X(H4)]
 Deg. of freedom    15
 Full point group                 CS      NOp   2
 Rotational constants (GHZ):          10.3888523           3.7459084           2.8506578
 Standard basis: 6-31G(d) (6D, 7F)
    85 basis functions,   160 primitive gaussians,    85 cartesian basis functions
    20 alpha electrons       20 beta electrons
       nuclear repulsion energy       176.4041058966 Hartrees.
 NAtoms=   10 NActive=   10 NUniq=   10 SFac= 1.00D+00 NAtFMM=   60 NAOKFM=F Big=F
 Integral buffers will be    131072 words long.
 Raffenetti 1 integral format.
 Two-electron integral symmetry is turned off.
 One-electron integrals computed using PRISM.
 NBasis=    85 RedAO= T EigKep=  3.88D-03  NBF=    85
 NBsUse=    85 1.00D-06 EigRej= -1.00D+00 NBFU=    85
 ExpMin= 1.61D-01 ExpMax= 5.48D+03 ExpMxC= 8.25D+02 IAcc=3 IRadAn=         5 AccDes= 0.00D+00
 Harris functional with IExCor=  205 and IRadAn=       5 diagonalized for initial guess.
 HarFok:  IExCor=  205 AccDes= 0.00D+00 IRadAn=         5 IDoV= 1 UseB2=F ITyADJ=14
 ICtDFT=  3500011 ScaDFX=  1.000000  1.000000  1.000000  1.000000
 FoFCou: FMM=F IPFlag=           0 FMFlag=      100000 FMFlg1=           0
         NFxFlg=           0 DoJE=T BraDBF=F KetDBF=T FulRan=T
         wScrn=  0.000000 ICntrl=       500 IOpCl=  0 I1Cent=   200000004 NGrid=           0
         NMat0=    1 NMatS0=      1 NMatT0=    0 NMatD0=    1 NMtDS0=    0 NMtDT0=    0
 Symmetry not used in FoFCou.
 Keep R1 ints in memory in canonical form, NReq=7542282.
 Requested convergence on RMS density matrix=1.00D-08 within 128 cycles.
 Requested convergence on MAX density matrix=1.00D-06.
 Requested convergence on             energy=1.00D-06.
 No special actions if energy rises.
 SCF Done:  E(RHF) =  -282.708772802     A.U. after   15 cycles
            NFock= 15  Conv=0.49D-08     -V/T= 2.0036

 **********************************************************************

            Population analysis using the SCF Density.

 **********************************************************************

 Alpha  occ. eigenvalues --  -20.49579 -20.43202 -15.75371 -11.32923 -11.32431
 Alpha  occ. eigenvalues --   -1.40023  -1.31590  -1.14512  -1.02329  -0.87466
 Alpha  occ. eigenvalues --   -0.84665  -0.73719  -0.68919  -0.63625  -0.57958
 Alpha  occ. eigenvalues --   -0.51187  -0.48091  -0.37824  -0.33324  -0.31741
 Alpha virt. eigenvalues --    0.10593   0.15529   0.21675   0.22536   0.26827
 Alpha virt. eigenvalues --    0.31926   0.32652   0.40003   0.52515   0.57229
 Alpha virt. eigenvalues --    0.69402   0.72592   0.78059   0.84090   0.87115
 Alpha virt. eigenvalues --    0.88415   0.89643   0.95364   1.00280   1.02979
 Alpha virt. eigenvalues --    1.03429   1.04158   1.07553   1.08094   1.13697
 Alpha virt. eigenvalues --    1.22707   1.26488   1.33717   1.35380   1.41196
 Alpha virt. eigenvalues --    1.45282   1.48123   1.55169   1.65721   1.76539
 Alpha virt. eigenvalues --    1.81580   1.89518   2.04602   2.05503   2.08077
 Alpha virt. eigenvalues --    2.10497   2.20306   2.23662   2.24845   2.26325
 Alpha virt. eigenvalues --    2.32197   2.37802   2.37941   2.41891   2.44493
 Alpha virt. eigenvalues --    2.62577   2.62969   2.73370   2.82359   2.83620
 Alpha virt. eigenvalues --    2.97361   3.04513   3.23751   3.36003   3.44036
 Alpha virt. eigenvalues --    4.11300   4.28584   4.47812   4.58202   4.87622
          Condensed to atoms (all electrons):
               1          2          3          4          5          6
     1  N    7.063744   0.242843   0.018491   0.309524   0.309524  -0.031074
     2  H    0.242843   0.269656  -0.045998  -0.006346  -0.006346   0.001690
     3  C    0.018491  -0.045998   5.640775  -0.020981  -0.020981   0.183491
     4  H    0.309524  -0.006346  -0.020981   0.270540  -0.004492   0.001566
     5  H    0.309524  -0.006346  -0.020981  -0.004492   0.270540   0.001566
     6  C   -0.031074   0.001690   0.183491   0.001566   0.001566   4.225574
     7  H   -0.038631   0.002479   0.388607  -0.003695   0.001255  -0.017365
     8  H   -0.038631   0.002479   0.388607   0.001255  -0.003695  -0.017365
     9  O   -0.017384   0.064973  -0.114105   0.000220   0.000220   0.474862
    10  O    0.001583   0.000989  -0.073223  -0.000022  -0.000022   0.450386
               7          8          9         10
     1  N   -0.038631  -0.038631  -0.017384   0.001583
     2  H    0.002479   0.002479   0.064973   0.000989
     3  C    0.388607   0.388607  -0.114105  -0.073223
     4  H   -0.003695   0.001255   0.000220  -0.000022
     5  H    0.001255  -0.003695   0.000220  -0.000022
     6  C   -0.017365  -0.017365   0.474862   0.450386
     7  H    0.430598  -0.015347   0.000876   0.002181
     8  H   -0.015347   0.430598   0.000876   0.002181
     9  O    0.000876   0.000876   8.343241  -0.079301
    10  O    0.002181   0.002181  -0.079301   8.459300
 Mulliken charges:
               1
     1  N   -0.819989
     2  H    0.473580
     3  C   -0.344681
     4  H    0.452433
     5  H    0.452433
     6  C    0.726668
     7  H    0.249043
     8  H    0.249043
     9  O   -0.674478
    10  O   -0.764052
 Sum of Mulliken charges =  -0.00000
 Mulliken charges with hydrogens summed into heavy atoms:
               1
     1  N    0.558458
     3  C    0.153404
     6  C    0.726668
     9  O   -0.674478
    10  O   -0.764052
 DipInt: DoE/N= T F RetVal/Mat= T F Init=T NMatP=  1 IDeriv=0 Min/MaxMlt=  0  4
 Entering OneElI...
 OneElI was handed   104837257 working-precision words.
 Multipole integrals L=0 to 4 MinM= 0 MaxM= 0.
 Requested accuracy = 0.1000D-12
 ShPair: Thresh= 1.00D-13 NBox=     0 BxSize= 0.00D+00 RnKept= 8.13D+00
         NSMCal=                  465 NSMKep=                 456
 PrmmSu-InSpLW:  IPartL=    0 NPrtUS=    1 NPrtUL=    1 DoSpLW=F IThBeg=    0 IThEnd=    0 NThAct=    1.
 PrSmSu:  IncTry=   512 NBBP=            456 NTPThr=   100 NPartT=    1 Incr=           4 LDynOK=F GPUOK=F.
 PrsmSu:  NPrtUS=   1 ThrOK=F IAlg=2 LenDen=           0 ISkipM=0 DoSpLW=F IThBeg=    0 IThEnd=    0.
 Prism:   IPart=     0 DynPar=F LinDyn=F Incr=           4.
 PRISM was handed   104789661 working-precision words and   456 shell-pairs
 IPart=  0 NShTot=         456 NBatch=          39 AvBLen=        11.7
 PrsmSu-ThDecC:  IPartSL=    0    0 NPrtUSL=    1    1 IThBeg=    0 IThEnd=    0 CPU=   -1 GPU=   -1 NThAct=    1.
 PrSmSu:  NxtVal=              5.
 Electronic moments (au):
        -40.00000000        -59.80120001        -52.97419112          0.00000000
       -204.78657254       -350.88979758        -30.37219342        -77.95969133
          0.00000000         -0.00000000       -712.01936152      -1108.17819504
          0.00000000       -412.60478502       -309.74904681          0.00000000
        -30.20469459        -18.46607767          0.00000000         -0.00000000
      -2942.20687681      -6500.03558158       -111.29506550      -1263.98102793
          0.00000000       -811.18094769         -0.00000000          0.00000000
         -0.00000000      -1227.40541899       -133.14256185       -233.84527818
         -0.00000000          0.00000000        -27.79560657
 Electronic spatial extent (au):  <R**2>=            586.0486
 DipInt: DoE/N= F T RetVal/Mat= T F Init=T NMatP=  1 IDeriv=0 Min/MaxMlt=  0  4
 Nuclear    moments (au):
         40.00000000         59.03999302         47.71403583          0.00000000
        177.52405531        317.06593283         11.11930004         70.42590859
          0.00000000          0.00000000        590.62341238        930.75586439
          0.00000000        374.20483052        255.23052730          0.00000000
          0.16452063        -17.01710321          0.00000000          0.00000000
       2195.17633172       5074.12978972         30.91880586       1036.47616620
          0.00000000        619.54255728          0.00000000          0.00000000
          0.00000000        903.09777155         16.69223179         52.34837264
          0.00000000          0.00000000        -21.20479205
 Total      moments (au):
          0.00000000         -0.76120699         -5.26015529          0.00000000
        -27.26251723        -33.82386474        -19.25289338         -7.53378274
          0.00000000         -0.00000000       -121.39594914       -177.42233065
          0.00000000        -38.39995450        -54.51851951          0.00000000
        -30.04017396        -35.48318088          0.00000000         -0.00000000
       -747.03054509      -1425.90579186        -80.37625964       -227.50486173
          0.00000000       -191.63839042         -0.00000000          0.00000000
         -0.00000000       -324.30764744       -116.45033005       -181.49690554
         -0.00000000          0.00000000        -49.00039862
 Traceless Quadrup. (au):
         -0.48275878         -7.04410629          7.52686507         -7.53378274
          0.00000000         -0.00000000
 Charge=              0.0000 electrons
 Dipole moment (field-independent basis, Debye):
    X=             -1.9348    Y=            -13.3700    Z=              0.0000  Tot=             13.5092
 Quadrupole moment (field-independent basis, Debye-Ang):
   XX=            -36.6690   YY=            -45.4943   ZZ=            -25.8958
   XY=            -10.1332   XZ=              0.0000   YZ=             -0.0000
 Traceless Quadrupole moment (field-independent basis, Debye-Ang):
   XX=             -0.6493   YY=             -9.4746   ZZ=             10.1239
   XY=            -10.1332   XZ=              0.0000   YZ=             -0.0000
 Octapole moment (field-independent basis, Debye-Ang**2):
  XXX=            -86.4050  YYY=           -126.2824  ZZZ=              0.0000  XYY=            -27.3316
  XXY=            -38.8042  XXZ=              0.0000  XZZ=            -21.3814  YZZ=            -25.2556
  YYZ=              0.0000  XYZ=             -0.0000
 Hexadecapole moment (field-independent basis, Debye-Ang**3):
 XXXX=           -281.3675 YYYY=           -537.0645 ZZZZ=            -30.2736 XXXY=            -85.6892
 XXXZ=              0.0000 YYYX=            -72.1802 YYYZ=             -0.0000 ZZZX=              0.0000
 ZZZY=             -0.0000 XXYY=           -122.1498 XXZZ=            -43.8608 YYZZ=            -68.3604
 XXYZ=             -0.0000 YYXZ=              0.0000 ZZXY=            -18.4559
 N-N= 1.764041058966D+02 E-N=-1.018720484168D+03  KE= 2.817043121079D+02
 Entering OneElI...
 OneElI was handed   104840567 working-precision words.
 Calculate electrostatic properties
    NBasis =    85  MinDer = 0  MaxDer = 0
    NGrid  =    10  NMatD  =   1
 Requested accuracy = 0.1000D-12
 ShPair: Thresh= 1.00D-13 NBox=     0 BxSize= 0.00D+00 RnKept= 8.13D+00
         NSMCal=                  465 NSMKep=                 452
 PrmmSu-InSpLW:  IPartL=    0 NPrtUS=    1 NPrtUL=    1 DoSpLW=F IThBeg=    0 IThEnd=    0 NThAct=    1.
 PrSmSu:  IncTry=   512 NBBP=           4520 NTPThr=   100 NPartT=    1 Incr=          45 LDynOK=F GPUOK=F.
 PrsmSu:  NPrtUS=   1 ThrOK=F IAlg=2 LenDen=           0 ISkipM=0 DoSpLW=F IThBeg=    0 IThEnd=    0.
 Prism:   IPart=     0 DynPar=F LinDyn=F Incr=          45.
 PRISM was handed   104794245 working-precision words and   452 shell-pairs
 IPart=  0 NShTot=        4520 NBatch=         452 AvBLen=        10.0
 PrsmSu-ThDecC:  IPartSL=    0    0 NPrtUSL=    1    1 IThBeg=    0 IThEnd=    0 CPU=   -1 GPU=   -1 NThAct=    1.
 PrSmSu:  NxtVal=             46.
 --------------------------------------------------------
       Center         ----      EFG at Nuclei      ----
                      3XX-RR        3YY-RR        3ZZ-RR
 --------------------------------------------------------
     1   Atom        0.124731      0.061057     -0.185788
     2   Atom       -0.316002      0.152133      0.163870
     3   Atom        0.005024     -0.189979      0.184954
     4   Atom        0.171004      0.049548     -0.220552
     5   Atom        0.171004      0.049548     -0.220552
     6   Atom        0.319471      0.242088     -0.561558
     7   Atom        0.005380      0.137202     -0.142582
     8   Atom        0.005380      0.137202     -0.142582
     9   Atom       -0.976175      1.376063     -0.399888
    10   Atom        1.246734     -1.493509      0.246774
 --------------------------------------------------------
                        XY            XZ            YZ
 --------------------------------------------------------
     1   Atom        0.029548      0.000000     -0.000000
     2   Atom       -0.131609      0.000000      0.000000
     3   Atom        0.364484     -0.000000      0.000000
     4   Atom       -0.049455     -0.091321     -0.238643
     5   Atom       -0.049455      0.091321      0.238643
     6   Atom       -0.095368      0.000000      0.000000
     7   Atom        0.008655     -0.207547     -0.018638
     8   Atom        0.008655      0.207547      0.018638
     9   Atom        0.055794     -0.000000     -0.000000
    10   Atom        1.306684      0.000000     -0.000000
 --------------------------------------------------------


 ---------------------------------------------------------------------------------
              Nuclear Quadrupole Coupling Constant in Principal Axis System
 ---------------------------------------------------------------------------------

       Atom             a.u.   MegaHertz   Gauss  10(-4) cm-1        Axes

              Baa    -0.1858     0.892     0.318     0.298 -0.0000  0.0000  1.0000
     1 N(14)  Bbb     0.0495    -0.238    -0.085    -0.079 -0.3654  0.9309 -0.0000
              Bcc     0.1363    -0.655    -0.234    -0.218  0.9309  0.3654  0.0000
 

 ---------------------------------------------------------------------------------

 No NMR shielding tensors so no spin-rotation constants.
 Leave Link  601 at Wed Sep  6 11:07:02 2023, MaxMem=   104857600 cpu:               0.1 elap:               0.2
 FitSet:  NAtFit=    10 NAtPot=    10 NAtFrz=     0 MDM=    14 TotChg=   0.00000
 Merz-Kollman atomic radii used.
 Atom Element Radius
    1     7    1.50
    2     1    1.20
    3     6    1.50
    4     1    1.20
    5     1    1.20
    6     6    1.50
    7     1    1.20
    8     1    1.20
    9     8    1.40
   10     8    1.40
 Generate VDW surfaces: Layer= 4 Dens= 6 Start= 1.400 Inc= 0.200

 **********************************************************************

            Electrostatic Properties Using The SCF Density.

 **********************************************************************

       Atomic Center    1 is at   0.855744 -1.169317  0.000000
       Atomic Center    2 is at   1.815776 -0.855570  0.000000
       Atomic Center    3 is at   0.000000  0.000000  0.000000
       Atomic Center    4 is at   0.667367 -1.637867 -0.874686
       Atomic Center    5 is at   0.667367 -1.637867  0.874686
       Atomic Center    6 is at   0.837879  1.270608  0.000000
       Atomic Center    7 is at  -0.629459 -0.009782 -0.889823
       Atomic Center    8 is at  -0.629459 -0.009782  0.889823
       Atomic Center    9 is at   2.094062  1.195930  0.000000
       Atomic Center   10 is at   0.197631  2.549272  0.000000
      ESP Fit Center   11 is at   1.257561 -0.473349  1.940147
      ESP Fit Center   12 is at   1.943657 -0.747857  1.746086
      ESP Fit Center   13 is at   1.717944 -0.383318  1.746086
      ESP Fit Center   14 is at   1.375786 -0.124932  1.746086
      ESP Fit Center   15 is at   2.280518 -1.587669  1.484924
      ESP Fit Center   16 is at   2.401826 -1.980764  1.166697
      ESP Fit Center   17 is at   2.111768 -2.648024  0.803635
      ESP Fit Center   18 is at   2.400281 -2.343444  0.803635
      ESP Fit Center   19 is at  -1.109448 -1.785900  0.409690
      ESP Fit Center   20 is at  -0.945103 -2.168869  0.409690
      ESP Fit Center   21 is at  -0.707032 -2.510916  0.409690
      ESP Fit Center   22 is at   1.167632 -3.205215  0.409690
      ESP Fit Center   23 is at   1.571071 -3.100758  0.409690
      ESP Fit Center   24 is at   1.945224 -2.917227  0.409690
      ESP Fit Center   25 is at   2.274774 -2.662136  0.409690
      ESP Fit Center   26 is at   2.546228 -2.345929  0.409690
      ESP Fit Center   27 is at  -1.084403 -1.972952  0.000000
      ESP Fit Center   28 is at  -0.890342 -2.336015  0.000000
      ESP Fit Center   29 is at  -0.629181 -2.654241  0.000000
      ESP Fit Center   30 is at  -0.310954 -2.915403  0.000000
      ESP Fit Center   31 is at   0.052109 -3.109464  0.000000
      ESP Fit Center   32 is at   0.446054 -3.228966  0.000000
      ESP Fit Center   33 is at   0.855744 -3.269317  0.000000
      ESP Fit Center   34 is at   1.265433 -3.228966  0.000000
      ESP Fit Center   35 is at   1.659379 -3.109464  0.000000
      ESP Fit Center   36 is at   2.022441 -2.915403  0.000000
      ESP Fit Center   37 is at   2.340668 -2.654241  0.000000
      ESP Fit Center   38 is at  -1.109448 -1.785900 -0.409690
      ESP Fit Center   39 is at  -0.945103 -2.168869 -0.409690
      ESP Fit Center   40 is at  -0.707032 -2.510916 -0.409690
      ESP Fit Center   41 is at   1.167632 -3.205215 -0.409690
      ESP Fit Center   42 is at   1.571071 -3.100758 -0.409690
      ESP Fit Center   43 is at   1.945224 -2.917227 -0.409690
      ESP Fit Center   44 is at   2.274774 -2.662136 -0.409690
      ESP Fit Center   45 is at   2.546228 -2.345929 -0.409690
      ESP Fit Center   46 is at   2.111768 -2.648024 -0.803635
      ESP Fit Center   47 is at   2.400281 -2.343444 -0.803635
      ESP Fit Center   48 is at   2.401826 -1.980764 -1.166697
      ESP Fit Center   49 is at   2.280518 -1.587669 -1.484924
      ESP Fit Center   50 is at   1.943657 -0.747857 -1.746086
      ESP Fit Center   51 is at   1.717944 -0.383318 -1.746086
      ESP Fit Center   52 is at   1.375786 -0.124932 -1.746086
      ESP Fit Center   53 is at   1.257561 -0.473349 -1.940147
      ESP Fit Center   54 is at   2.250592 -0.855570  1.622755
      ESP Fit Center   55 is at   2.033184 -0.479008  1.622755
      ESP Fit Center   56 is at   2.655776 -0.855570  1.454923
      ESP Fit Center   57 is at   2.543238 -0.435570  1.454923
      ESP Fit Center   58 is at   2.235776 -0.128109  1.454923
      ESP Fit Center   59 is at   2.543238 -1.275570  1.454923
      ESP Fit Center   60 is at   3.003716 -0.855570  1.187939
      ESP Fit Center   61 is at   2.923497 -0.426437  1.187939
      ESP Fit Center   62 is at   2.693674 -1.655879  1.187939
      ESP Fit Center   63 is at   2.923497 -1.284703  1.187939
      ESP Fit Center   64 is at   3.270699 -0.855570  0.840000
      ESP Fit Center   65 is at   3.206061 -0.426724  0.840000
      ESP Fit Center   66 is at   2.722906 -1.993074  0.840000
      ESP Fit Center   67 is at   3.017890 -1.675157  0.840000
      ESP Fit Center   68 is at   3.206061 -1.284416  0.840000
      ESP Fit Center   69 is at   3.438532 -0.855570  0.434816
      ESP Fit Center   70 is at   3.383238 -0.435570  0.434816
      ESP Fit Center   71 is at   2.627154 -2.260917  0.434816
      ESP Fit Center   72 is at   2.963238 -2.003031  0.434816
      ESP Fit Center   73 is at   3.221124 -1.666948  0.434816
      ESP Fit Center   74 is at   3.383238 -1.275570  0.434816
      ESP Fit Center   75 is at   3.495776 -0.855570  0.000000
      ESP Fit Center   76 is at   3.442996 -0.437771  0.000000
      ESP Fit Center   77 is at   2.715965 -2.274041  0.000000
      ESP Fit Center   78 is at   3.040444 -2.005609  0.000000
      ESP Fit Center   79 is at   3.287972 -1.664916  0.000000
      ESP Fit Center   80 is at   3.442996 -1.273369  0.000000
      ESP Fit Center   81 is at   3.438532 -0.855570 -0.434816
      ESP Fit Center   82 is at   3.383238 -0.435570 -0.434816
      ESP Fit Center   83 is at   2.627154 -2.260917 -0.434816
      ESP Fit Center   84 is at   2.963238 -2.003031 -0.434816
      ESP Fit Center   85 is at   3.221124 -1.666948 -0.434816
      ESP Fit Center   86 is at   3.383238 -1.275570 -0.434816
      ESP Fit Center   87 is at   3.270699 -0.855570 -0.840000
      ESP Fit Center   88 is at   3.206061 -0.426724 -0.840000
      ESP Fit Center   89 is at   2.722906 -1.993074 -0.840000
      ESP Fit Center   90 is at   3.017890 -1.675157 -0.840000
      ESP Fit Center   91 is at   3.206061 -1.284416 -0.840000
      ESP Fit Center   92 is at   3.003716 -0.855570 -1.187939
      ESP Fit Center   93 is at   2.923497 -0.426437 -1.187939
      ESP Fit Center   94 is at   2.693674 -1.655879 -1.187939
      ESP Fit Center   95 is at   2.923497 -1.284703 -1.187939
      ESP Fit Center   96 is at   2.655776 -0.855570 -1.454923
      ESP Fit Center   97 is at   2.543238 -0.435570 -1.454923
      ESP Fit Center   98 is at   2.235776 -0.128109 -1.454923
      ESP Fit Center   99 is at   2.543238 -1.275570 -1.454923
      ESP Fit Center  100 is at   2.250592 -0.855570 -1.622755
      ESP Fit Center  101 is at   2.033184 -0.479008 -1.622755
      ESP Fit Center  102 is at   0.803635  0.000000  1.940147
      ESP Fit Center  103 is at   0.695969  0.401818  1.940147
      ESP Fit Center  104 is at   1.166697  0.000000  1.746086
      ESP Fit Center  105 is at  -1.562775  1.341599  0.409690
      ESP Fit Center  106 is at  -1.562775 -1.341599  0.409690
      ESP Fit Center  107 is at  -1.260724 -1.628721  0.409690
      ESP Fit Center  108 is at  -1.484924  1.484924  0.000000
      ESP Fit Center  109 is at  -1.746086  1.166697  0.000000
      ESP Fit Center  110 is at  -1.940147  0.803635  0.000000
      ESP Fit Center  111 is at  -2.059649  0.409690  0.000000
      ESP Fit Center  112 is at  -2.100000  0.000000  0.000000
      ESP Fit Center  113 is at  -2.059649 -0.409690  0.000000
      ESP Fit Center  114 is at  -1.940147 -0.803635  0.000000
      ESP Fit Center  115 is at  -1.746086 -1.166697  0.000000
      ESP Fit Center  116 is at  -1.484924 -1.484924  0.000000
      ESP Fit Center  117 is at  -1.166697 -1.746086  0.000000
      ESP Fit Center  118 is at  -1.562775  1.341599 -0.409690
      ESP Fit Center  119 is at  -1.562775 -1.341599 -0.409690
      ESP Fit Center  120 is at  -1.260724 -1.628721 -0.409690
      ESP Fit Center  121 is at   1.166697  0.000000 -1.746086
      ESP Fit Center  122 is at   0.803635  0.000000 -1.940147
      ESP Fit Center  123 is at   0.695969  0.401818 -1.940147
      ESP Fit Center  124 is at  -0.480094 -2.785328 -0.439870
      ESP Fit Center  125 is at  -0.144011 -3.043215 -0.439870
      ESP Fit Center  126 is at   0.247367 -3.205328 -0.439870
      ESP Fit Center  127 is at   0.667367 -3.260623 -0.439870
      ESP Fit Center  128 is at  -0.999386 -1.848427 -0.874686
      ESP Fit Center  129 is at  -0.894657 -2.256316 -0.874686
      ESP Fit Center  130 is at  -0.691782 -2.625346 -0.874686
      ESP Fit Center  131 is at  -0.403505 -2.932329 -0.874686
      ESP Fit Center  132 is at  -0.047942 -3.157977 -0.874686
      ESP Fit Center  133 is at   0.352566 -3.288110 -0.874686
      ESP Fit Center  134 is at   0.772855 -3.314552 -0.874686
      ESP Fit Center  135 is at   1.186516 -3.235642 -0.874686
      ESP Fit Center  136 is at   1.567556 -3.056338 -0.874686
      ESP Fit Center  137 is at   1.892034 -2.787906 -0.874686
      ESP Fit Center  138 is at  -0.955388 -1.637867 -1.309502
      ESP Fit Center  139 is at  -0.900094 -2.057867 -1.309502
      ESP Fit Center  140 is at  -0.737980 -2.449245 -1.309502
      ESP Fit Center  141 is at  -0.480094 -2.785328 -1.309502
      ESP Fit Center  142 is at  -0.144011 -3.043215 -1.309502
      ESP Fit Center  143 is at   0.247367 -3.205328 -1.309502
      ESP Fit Center  144 is at   0.667367 -3.260623 -1.309502
      ESP Fit Center  145 is at   1.087367 -3.205328 -1.309502
      ESP Fit Center  146 is at   1.478745 -3.043215 -1.309502
      ESP Fit Center  147 is at   1.814828 -2.785328 -1.309502
      ESP Fit Center  148 is at   2.072714 -2.449245 -1.309502
      ESP Fit Center  149 is at   2.122290 -1.637867 -1.714686
      ESP Fit Center  150 is at  -0.771305 -1.854712 -1.714686
      ESP Fit Center  151 is at  -0.643473 -2.269134 -1.714686
      ESP Fit Center  152 is at  -0.399167 -2.627466 -1.714686
      ESP Fit Center  153 is at  -0.060094 -2.897867 -1.714686
      ESP Fit Center  154 is at   0.343616 -3.056312 -1.714686
      ESP Fit Center  155 is at   0.776094 -3.088722 -1.714686
      ESP Fit Center  156 is at   1.198910 -2.992216 -1.714686
      ESP Fit Center  157 is at   1.574496 -2.775371 -1.714686
      ESP Fit Center  158 is at   1.869481 -2.457454 -1.714686
      ESP Fit Center  159 is at   2.057652 -2.066713 -1.714686
      ESP Fit Center  160 is at   1.855306 -1.637867 -2.062625
      ESP Fit Center  161 is at   1.775088 -1.208734 -2.062625
      ESP Fit Center  162 is at   1.545265 -0.837558 -2.062625
      ESP Fit Center  163 is at   1.196877 -0.574467 -2.062625
      ESP Fit Center  164 is at   0.776976 -0.454995 -2.062625
      ESP Fit Center  165 is at  -0.500345 -1.419584 -2.062625
      ESP Fit Center  166 is at  -0.500345 -1.856150 -2.062625
      ESP Fit Center  167 is at  -0.342639 -2.263237 -2.062625
      ESP Fit Center  168 is at  -0.048526 -2.585863 -2.062625
      ESP Fit Center  169 is at   0.342272 -2.780458 -2.062625
      ESP Fit Center  170 is at   0.776976 -2.820739 -2.062625
      ESP Fit Center  171 is at   1.196877 -2.701267 -2.062625
      ESP Fit Center  172 is at   1.545265 -2.438177 -2.062625
      ESP Fit Center  173 is at   1.775088 -2.067000 -2.062625
      ESP Fit Center  174 is at   1.507367 -1.637867 -2.329609
      ESP Fit Center  175 is at   1.394828 -1.217867 -2.329609
      ESP Fit Center  176 is at   1.087367 -0.910406 -2.329609
      ESP Fit Center  177 is at   0.667367 -0.797867 -2.329609
      ESP Fit Center  178 is at   0.247367 -0.910406 -2.329609
      ESP Fit Center  179 is at  -0.060094 -1.217867 -2.329609
      ESP Fit Center  180 is at  -0.172633 -1.637867 -2.329609
      ESP Fit Center  181 is at  -0.060094 -2.057867 -2.329609
      ESP Fit Center  182 is at   0.247367 -2.365328 -2.329609
      ESP Fit Center  183 is at   0.667367 -2.477867 -2.329609
      ESP Fit Center  184 is at   1.087367 -2.365328 -2.329609
      ESP Fit Center  185 is at   1.394828 -2.057867 -2.329609
      ESP Fit Center  186 is at   1.102183 -1.637867 -2.497441
      ESP Fit Center  187 is at   0.884775 -1.261305 -2.497441
      ESP Fit Center  188 is at   0.449959 -1.261305 -2.497441
      ESP Fit Center  189 is at   0.232551 -1.637867 -2.497441
      ESP Fit Center  190 is at   0.449959 -2.014429 -2.497441
      ESP Fit Center  191 is at   0.884775 -2.014429 -2.497441
      ESP Fit Center  192 is at   0.667367 -1.637867 -2.554686
      ESP Fit Center  193 is at   0.667367 -1.637867  2.554686
      ESP Fit Center  194 is at   1.102183 -1.637867  2.497441
      ESP Fit Center  195 is at   0.884775 -1.261305  2.497441
      ESP Fit Center  196 is at   0.449959 -1.261305  2.497441
      ESP Fit Center  197 is at   0.232551 -1.637867  2.497441
      ESP Fit Center  198 is at   0.449959 -2.014429  2.497441
      ESP Fit Center  199 is at   0.884775 -2.014429  2.497441
      ESP Fit Center  200 is at   1.507367 -1.637867  2.329609
      ESP Fit Center  201 is at   1.394828 -1.217867  2.329609
      ESP Fit Center  202 is at   1.087367 -0.910406  2.329609
      ESP Fit Center  203 is at   0.667367 -0.797867  2.329609
      ESP Fit Center  204 is at   0.247367 -0.910406  2.329609
      ESP Fit Center  205 is at  -0.060094 -1.217867  2.329609
      ESP Fit Center  206 is at  -0.172633 -1.637867  2.329609
      ESP Fit Center  207 is at  -0.060094 -2.057867  2.329609
      ESP Fit Center  208 is at   0.247367 -2.365328  2.329609
      ESP Fit Center  209 is at   0.667367 -2.477867  2.329609
      ESP Fit Center  210 is at   1.087367 -2.365328  2.329609
      ESP Fit Center  211 is at   1.394828 -2.057867  2.329609
      ESP Fit Center  212 is at   1.855306 -1.637867  2.062625
      ESP Fit Center  213 is at   1.775088 -1.208734  2.062625
      ESP Fit Center  214 is at   1.545265 -0.837558  2.062625
      ESP Fit Center  215 is at   1.196877 -0.574467  2.062625
      ESP Fit Center  216 is at   0.776976 -0.454995  2.062625
      ESP Fit Center  217 is at  -0.500345 -1.419584  2.062625
      ESP Fit Center  218 is at  -0.500345 -1.856150  2.062625
      ESP Fit Center  219 is at  -0.342639 -2.263237  2.062625
      ESP Fit Center  220 is at  -0.048526 -2.585863  2.062625
      ESP Fit Center  221 is at   0.342272 -2.780458  2.062625
      ESP Fit Center  222 is at   0.776976 -2.820739  2.062625
      ESP Fit Center  223 is at   1.196877 -2.701267  2.062625
      ESP Fit Center  224 is at   1.545265 -2.438177  2.062625
      ESP Fit Center  225 is at   1.775088 -2.067000  2.062625
      ESP Fit Center  226 is at   2.122290 -1.637867  1.714686
      ESP Fit Center  227 is at  -0.771305 -1.854712  1.714686
      ESP Fit Center  228 is at  -0.643473 -2.269134  1.714686
      ESP Fit Center  229 is at  -0.399167 -2.627466  1.714686
      ESP Fit Center  230 is at  -0.060094 -2.897867  1.714686
      ESP Fit Center  231 is at   0.343616 -3.056312  1.714686
      ESP Fit Center  232 is at   0.776094 -3.088722  1.714686
      ESP Fit Center  233 is at   1.198910 -2.992216  1.714686
      ESP Fit Center  234 is at   1.574496 -2.775371  1.714686
      ESP Fit Center  235 is at   1.869481 -2.457454  1.714686
      ESP Fit Center  236 is at   2.057652 -2.066713  1.714686
      ESP Fit Center  237 is at  -0.955388 -1.637867  1.309502
      ESP Fit Center  238 is at  -0.900094 -2.057867  1.309502
      ESP Fit Center  239 is at  -0.737980 -2.449245  1.309502
      ESP Fit Center  240 is at  -0.480094 -2.785328  1.309502
      ESP Fit Center  241 is at  -0.144011 -3.043215  1.309502
      ESP Fit Center  242 is at   0.247367 -3.205328  1.309502
      ESP Fit Center  243 is at   0.667367 -3.260623  1.309502
      ESP Fit Center  244 is at   1.087367 -3.205328  1.309502
      ESP Fit Center  245 is at   1.478745 -3.043215  1.309502
      ESP Fit Center  246 is at   1.814828 -2.785328  1.309502
      ESP Fit Center  247 is at   2.072714 -2.449245  1.309502
      ESP Fit Center  248 is at  -0.999386 -1.848427  0.874686
      ESP Fit Center  249 is at  -0.894657 -2.256316  0.874686
      ESP Fit Center  250 is at  -0.691782 -2.625346  0.874686
      ESP Fit Center  251 is at  -0.403505 -2.932329  0.874686
      ESP Fit Center  252 is at  -0.047942 -3.157977  0.874686
      ESP Fit Center  253 is at   0.352566 -3.288110  0.874686
      ESP Fit Center  254 is at   0.772855 -3.314552  0.874686
      ESP Fit Center  255 is at   1.186516 -3.235642  0.874686
      ESP Fit Center  256 is at   1.567556 -3.056338  0.874686
      ESP Fit Center  257 is at   1.892034 -2.787906  0.874686
      ESP Fit Center  258 is at  -0.480094 -2.785328  0.439870
      ESP Fit Center  259 is at  -0.144011 -3.043215  0.439870
      ESP Fit Center  260 is at   0.247367 -3.205328  0.439870
      ESP Fit Center  261 is at   0.667367 -3.260623  0.439870
      ESP Fit Center  262 is at   0.837879  1.270608  2.100000
      ESP Fit Center  263 is at   1.247569  1.270608  2.059649
      ESP Fit Center  264 is at   1.042724  1.625410  2.059649
      ESP Fit Center  265 is at   0.633034  1.625410  2.059649
      ESP Fit Center  266 is at   0.428190  1.270608  2.059649
      ESP Fit Center  267 is at   0.633034  0.915806  2.059649
      ESP Fit Center  268 is at   1.042724  0.915806  2.059649
      ESP Fit Center  269 is at   1.641514  1.270608  1.940147
      ESP Fit Center  270 is at   1.533848  1.672426  1.940147
      ESP Fit Center  271 is at   1.239697  1.966576  1.940147
      ESP Fit Center  272 is at   0.837879  2.074243  1.940147
      ESP Fit Center  273 is at   0.436062  1.966576  1.940147
      ESP Fit Center  274 is at   0.141911  1.672426  1.940147
      ESP Fit Center  275 is at   0.034244  1.270608  1.940147
      ESP Fit Center  276 is at   0.837879  0.466973  1.940147
      ESP Fit Center  277 is at   1.239697  0.574639  1.940147
      ESP Fit Center  278 is at   1.533848  0.868790  1.940147
      ESP Fit Center  279 is at   1.700079  2.056607  1.746086
      ESP Fit Center  280 is at   1.357921  2.314993  1.746086
      ESP Fit Center  281 is at  -0.308953  1.484988  1.746086
      ESP Fit Center  282 is at   1.357921  0.226223  1.746086
      ESP Fit Center  283 is at   1.700079  2.056607 -1.746086
      ESP Fit Center  284 is at   1.357921  2.314993 -1.746086
      ESP Fit Center  285 is at  -0.308953  1.484988 -1.746086
      ESP Fit Center  286 is at   1.357921  0.226223 -1.746086
      ESP Fit Center  287 is at   1.641514  1.270608 -1.940147
      ESP Fit Center  288 is at   1.533848  1.672426 -1.940147
      ESP Fit Center  289 is at   1.239697  1.966576 -1.940147
      ESP Fit Center  290 is at   0.837879  2.074243 -1.940147
      ESP Fit Center  291 is at   0.436062  1.966576 -1.940147
      ESP Fit Center  292 is at   0.141911  1.672426 -1.940147
      ESP Fit Center  293 is at   0.034244  1.270608 -1.940147
      ESP Fit Center  294 is at   0.837879  0.466973 -1.940147
      ESP Fit Center  295 is at   1.239697  0.574639 -1.940147
      ESP Fit Center  296 is at   1.533848  0.868790 -1.940147
      ESP Fit Center  297 is at   1.247569  1.270608 -2.059649
      ESP Fit Center  298 is at   1.042724  1.625410 -2.059649
      ESP Fit Center  299 is at   0.633034  1.625410 -2.059649
      ESP Fit Center  300 is at   0.428190  1.270608 -2.059649
      ESP Fit Center  301 is at   0.633034  0.915806 -2.059649
      ESP Fit Center  302 is at   1.042724  0.915806 -2.059649
      ESP Fit Center  303 is at   0.837879  1.270608 -2.100000
      ESP Fit Center  304 is at  -1.776921  1.137680 -0.455007
      ESP Fit Center  305 is at  -2.034807  0.801596 -0.455007
      ESP Fit Center  306 is at  -2.196921  0.410218 -0.455007
      ESP Fit Center  307 is at  -2.252215 -0.009782 -0.455007
      ESP Fit Center  308 is at  -2.196921 -0.429782 -0.455007
      ESP Fit Center  309 is at  -2.034807 -0.821159 -0.455007
      ESP Fit Center  310 is at  -1.776921 -1.157243 -0.455007
      ESP Fit Center  311 is at  -1.344769  1.510328 -0.889823
      ESP Fit Center  312 is at  -1.700332  1.284680 -0.889823
      ESP Fit Center  313 is at  -1.988608  0.977697 -0.889823
      ESP Fit Center  314 is at  -2.191484  0.608667 -0.889823
      ESP Fit Center  315 is at  -2.296212  0.200778 -0.889823
      ESP Fit Center  316 is at  -2.296212 -0.220342 -0.889823
      ESP Fit Center  317 is at  -2.191484 -0.628231 -0.889823
      ESP Fit Center  318 is at  -1.988608 -0.997261 -0.889823
      ESP Fit Center  319 is at  -1.700332 -1.304244 -0.889823
      ESP Fit Center  320 is at  -1.344769 -1.529891 -0.889823
      ESP Fit Center  321 is at  -1.049459  1.557680 -1.324639
      ESP Fit Center  322 is at  -1.440837  1.395566 -1.324639
      ESP Fit Center  323 is at  -1.776921  1.137680 -1.324639
      ESP Fit Center  324 is at  -2.034807  0.801596 -1.324639
      ESP Fit Center  325 is at  -2.196921  0.410218 -1.324639
      ESP Fit Center  326 is at  -2.252215 -0.009782 -1.324639
      ESP Fit Center  327 is at  -2.196921 -0.429782 -1.324639
      ESP Fit Center  328 is at  -2.034807 -0.821159 -1.324639
      ESP Fit Center  329 is at  -1.776921 -1.157243 -1.324639
      ESP Fit Center  330 is at  -1.440837 -1.415129 -1.324639
      ESP Fit Center  331 is at  -1.049459 -1.577243 -1.324639
      ESP Fit Center  332 is at  -0.520733  1.441073 -1.729823
      ESP Fit Center  333 is at  -0.953210  1.408663 -1.729823
      ESP Fit Center  334 is at  -1.356921  1.250218 -1.729823
      ESP Fit Center  335 is at  -1.695993  0.979817 -1.729823
      ESP Fit Center  336 is at  -1.940299  0.621485 -1.729823
      ESP Fit Center  337 is at  -2.068132  0.207063 -1.729823
      ESP Fit Center  338 is at  -2.068132 -0.226627 -1.729823
      ESP Fit Center  339 is at  -1.940299 -0.641049 -1.729823
      ESP Fit Center  340 is at  -1.695993 -0.999381 -1.729823
      ESP Fit Center  341 is at  -1.356921 -1.269782 -1.729823
      ESP Fit Center  342 is at  -0.953210 -1.428227 -1.729823
      ESP Fit Center  343 is at   0.558480 -0.009782 -2.077762
      ESP Fit Center  344 is at   0.478261  0.419351 -2.077762
      ESP Fit Center  345 is at   0.248438  0.790528 -2.077762
      ESP Fit Center  346 is at  -0.099949  1.053618 -2.077762
      ESP Fit Center  347 is at  -0.519850  1.173090 -2.077762
      ESP Fit Center  348 is at  -0.954554  1.132809 -2.077762
      ESP Fit Center  349 is at  -1.345353  0.938214 -2.077762
      ESP Fit Center  350 is at  -1.639466  0.615588 -2.077762
      ESP Fit Center  351 is at  -1.797172  0.208501 -2.077762
      ESP Fit Center  352 is at  -1.797172 -0.228065 -2.077762
      ESP Fit Center  353 is at  -1.639466 -0.635151 -2.077762
      ESP Fit Center  354 is at  -1.345353 -0.957778 -2.077762
      ESP Fit Center  355 is at  -0.954554 -1.152372 -2.077762
      ESP Fit Center  356 is at  -0.519850 -1.192654 -2.077762
      ESP Fit Center  357 is at   0.478261 -0.438915 -2.077762
      ESP Fit Center  358 is at   0.210541 -0.009782 -2.344746
      ESP Fit Center  359 is at   0.098002  0.410218 -2.344746
      ESP Fit Center  360 is at  -0.209459  0.717680 -2.344746
      ESP Fit Center  361 is at  -0.629459  0.830218 -2.344746
      ESP Fit Center  362 is at  -1.049459  0.717680 -2.344746
      ESP Fit Center  363 is at  -1.356921  0.410218 -2.344746
      ESP Fit Center  364 is at  -1.469459 -0.009782 -2.344746
      ESP Fit Center  365 is at  -1.356921 -0.429782 -2.344746
      ESP Fit Center  366 is at  -1.049459 -0.737243 -2.344746
      ESP Fit Center  367 is at  -0.629459 -0.849782 -2.344746
      ESP Fit Center  368 is at  -0.209459 -0.737243 -2.344746
      ESP Fit Center  369 is at   0.098002 -0.429782 -2.344746
      ESP Fit Center  370 is at  -0.194643 -0.009782 -2.512578
      ESP Fit Center  371 is at  -0.412051  0.366780 -2.512578
      ESP Fit Center  372 is at  -0.846867  0.366780 -2.512578
      ESP Fit Center  373 is at  -1.064275 -0.009782 -2.512578
      ESP Fit Center  374 is at  -0.846867 -0.386343 -2.512578
      ESP Fit Center  375 is at  -0.412051 -0.386343 -2.512578
      ESP Fit Center  376 is at  -0.629459 -0.009782 -2.569823
      ESP Fit Center  377 is at  -0.629459 -0.009782  2.569823
      ESP Fit Center  378 is at  -0.194643 -0.009782  2.512578
      ESP Fit Center  379 is at  -0.412051  0.366780  2.512578
      ESP Fit Center  380 is at  -0.846867  0.366780  2.512578
      ESP Fit Center  381 is at  -1.064275 -0.009782  2.512578
      ESP Fit Center  382 is at  -0.846867 -0.386343  2.512578
      ESP Fit Center  383 is at  -0.412051 -0.386343  2.512578
      ESP Fit Center  384 is at   0.210541 -0.009782  2.344746
      ESP Fit Center  385 is at   0.098002  0.410218  2.344746
      ESP Fit Center  386 is at  -0.209459  0.717680  2.344746
      ESP Fit Center  387 is at  -0.629459  0.830218  2.344746
      ESP Fit Center  388 is at  -1.049459  0.717680  2.344746
      ESP Fit Center  389 is at  -1.356921  0.410218  2.344746
      ESP Fit Center  390 is at  -1.469459 -0.009782  2.344746
      ESP Fit Center  391 is at  -1.356921 -0.429782  2.344746
      ESP Fit Center  392 is at  -1.049459 -0.737243  2.344746
      ESP Fit Center  393 is at  -0.629459 -0.849782  2.344746
      ESP Fit Center  394 is at  -0.209459 -0.737243  2.344746
      ESP Fit Center  395 is at   0.098002 -0.429782  2.344746
      ESP Fit Center  396 is at   0.558480 -0.009782  2.077762
      ESP Fit Center  397 is at   0.478261  0.419351  2.077762
      ESP Fit Center  398 is at   0.248438  0.790528  2.077762
      ESP Fit Center  399 is at  -0.099949  1.053618  2.077762
      ESP Fit Center  400 is at  -0.519850  1.173090  2.077762
      ESP Fit Center  401 is at  -0.954554  1.132809  2.077762
      ESP Fit Center  402 is at  -1.345353  0.938214  2.077762
      ESP Fit Center  403 is at  -1.639466  0.615588  2.077762
      ESP Fit Center  404 is at  -1.797172  0.208501  2.077762
      ESP Fit Center  405 is at  -1.797172 -0.228065  2.077762
      ESP Fit Center  406 is at  -1.639466 -0.635151  2.077762
      ESP Fit Center  407 is at  -1.345353 -0.957778  2.077762
      ESP Fit Center  408 is at  -0.954554 -1.152372  2.077762
      ESP Fit Center  409 is at  -0.519850 -1.192654  2.077762
      ESP Fit Center  410 is at   0.478261 -0.438915  2.077762
      ESP Fit Center  411 is at  -0.520733  1.441073  1.729823
      ESP Fit Center  412 is at  -0.953210  1.408663  1.729823
      ESP Fit Center  413 is at  -1.356921  1.250218  1.729823
      ESP Fit Center  414 is at  -1.695993  0.979817  1.729823
      ESP Fit Center  415 is at  -1.940299  0.621485  1.729823
      ESP Fit Center  416 is at  -2.068132  0.207063  1.729823
      ESP Fit Center  417 is at  -2.068132 -0.226627  1.729823
      ESP Fit Center  418 is at  -1.940299 -0.641049  1.729823
      ESP Fit Center  419 is at  -1.695993 -0.999381  1.729823
      ESP Fit Center  420 is at  -1.356921 -1.269782  1.729823
      ESP Fit Center  421 is at  -0.953210 -1.428227  1.729823
      ESP Fit Center  422 is at  -1.049459  1.557680  1.324639
      ESP Fit Center  423 is at  -1.440837  1.395566  1.324639
      ESP Fit Center  424 is at  -1.776921  1.137680  1.324639
      ESP Fit Center  425 is at  -2.034807  0.801596  1.324639
      ESP Fit Center  426 is at  -2.196921  0.410218  1.324639
      ESP Fit Center  427 is at  -2.252215 -0.009782  1.324639
      ESP Fit Center  428 is at  -2.196921 -0.429782  1.324639
      ESP Fit Center  429 is at  -2.034807 -0.821159  1.324639
      ESP Fit Center  430 is at  -1.776921 -1.157243  1.324639
      ESP Fit Center  431 is at  -1.440837 -1.415129  1.324639
      ESP Fit Center  432 is at  -1.049459 -1.577243  1.324639
      ESP Fit Center  433 is at  -1.344769  1.510328  0.889823
      ESP Fit Center  434 is at  -1.700332  1.284680  0.889823
      ESP Fit Center  435 is at  -1.988608  0.977697  0.889823
      ESP Fit Center  436 is at  -2.191484  0.608667  0.889823
      ESP Fit Center  437 is at  -2.296212  0.200778  0.889823
      ESP Fit Center  438 is at  -2.296212 -0.220342  0.889823
      ESP Fit Center  439 is at  -2.191484 -0.628231  0.889823
      ESP Fit Center  440 is at  -1.988608 -0.997261  0.889823
      ESP Fit Center  441 is at  -1.700332 -1.304244  0.889823
      ESP Fit Center  442 is at  -1.344769 -1.529891  0.889823
      ESP Fit Center  443 is at  -1.776921  1.137680  0.455007
      ESP Fit Center  444 is at  -2.034807  0.801596  0.455007
      ESP Fit Center  445 is at  -2.196921  0.410218  0.455007
      ESP Fit Center  446 is at  -2.252215 -0.009782  0.455007
      ESP Fit Center  447 is at  -2.196921 -0.429782  0.455007
      ESP Fit Center  448 is at  -2.034807 -0.821159  0.455007
      ESP Fit Center  449 is at  -1.776921 -1.157243  0.455007
      ESP Fit Center  450 is at   2.094062  1.195930  1.960000
      ESP Fit Center  451 is at   2.501569  1.195930  1.917169
      ESP Fit Center  452 is at   2.297815  1.548842  1.917169
      ESP Fit Center  453 is at   1.890308  1.548842  1.917169
      ESP Fit Center  454 is at   1.890308  0.843019  1.917169
      ESP Fit Center  455 is at   2.297815  0.843019  1.917169
      ESP Fit Center  456 is at   2.891266  1.195930  1.790549
      ESP Fit Center  457 is at   2.784461  1.594532  1.790549
      ESP Fit Center  458 is at   2.492664  1.886329  1.790549
      ESP Fit Center  459 is at   2.094062  1.993134  1.790549
      ESP Fit Center  460 is at   1.695460  0.505531  1.790549
      ESP Fit Center  461 is at   2.094062  0.398726  1.790549
      ESP Fit Center  462 is at   2.492664  0.505531  1.790549
      ESP Fit Center  463 is at   2.784461  0.797328  1.790549
      ESP Fit Center  464 is at   3.246121  1.195930  1.585673
      ESP Fit Center  465 is at   3.168325  1.612102  1.585673
      ESP Fit Center  466 is at   2.945444  1.972067  1.585673
      ESP Fit Center  467 is at   2.607579  2.227211  1.585673
      ESP Fit Center  468 is at   2.200361  2.343075  1.585673
      ESP Fit Center  469 is at   1.778786  2.304010  1.585673
      ESP Fit Center  470 is at   1.778786  0.087850  1.585673
      ESP Fit Center  471 is at   2.200361  0.048786  1.585673
      ESP Fit Center  472 is at   2.607579  0.164649  1.585673
      ESP Fit Center  473 is at   2.945444  0.419793  1.585673
      ESP Fit Center  474 is at   3.168325  0.779759  1.585673
      ESP Fit Center  475 is at   3.550626  1.195930  1.311496
      ESP Fit Center  476 is at   3.491625  1.606292  1.311496
      ESP Fit Center  477 is at   3.319401  1.983408  1.311496
      ESP Fit Center  478 is at   3.047908  2.296728  1.311496
      ESP Fit Center  479 is at   2.699140  2.520867  1.311496
      ESP Fit Center  480 is at   2.301353  2.637668  1.311496
      ESP Fit Center  481 is at   1.886771  2.637668  1.311496
      ESP Fit Center  482 is at   2.699140 -0.129007  1.311496
      ESP Fit Center  483 is at   3.047908  0.095133  1.311496
      ESP Fit Center  484 is at   3.319401  0.408452  1.311496
      ESP Fit Center  485 is at   3.491625  0.785569  1.311496
      ESP Fit Center  486 is at   3.791472  1.195930  0.980000
      ESP Fit Center  487 is at   3.738144  1.618059  0.980000
      ESP Fit Center  488 is at   3.581513  2.013664  0.980000
      ESP Fit Center  489 is at   3.331420  2.357887  0.980000
      ESP Fit Center  490 is at   3.003580  2.629101  0.980000
      ESP Fit Center  491 is at   2.618590  2.810263  0.980000
      ESP Fit Center  492 is at   2.200643  2.889991  0.980000
      ESP Fit Center  493 is at   3.331420  0.033973  0.980000
      ESP Fit Center  494 is at   3.581513  0.378197  0.980000
      ESP Fit Center  495 is at   3.738144  0.773802  0.980000
      ESP Fit Center  496 is at   3.958133  1.195930  0.605673
      ESP Fit Center  497 is at   3.911397  1.610725  0.605673
      ESP Fit Center  498 is at   3.773532  2.004720  0.605673
      ESP Fit Center  499 is at   3.551451  2.358159  0.605673
      ESP Fit Center  500 is at   3.256291  2.653319  0.605673
      ESP Fit Center  501 is at   2.902852  2.875400  0.605673
      ESP Fit Center  502 is at   2.508857  3.013265  0.605673
      ESP Fit Center  503 is at   2.094062  3.060001  0.605673
      ESP Fit Center  504 is at   3.551451  0.033701  0.605673
      ESP Fit Center  505 is at   3.773532  0.387140  0.605673
      ESP Fit Center  506 is at   3.911397  0.781135  0.605673
      ESP Fit Center  507 is at   4.043325  1.195930  0.204876
      ESP Fit Center  508 is at   3.997752  1.614964  0.204876
      ESP Fit Center  509 is at   3.863165  2.014405  0.204876
      ESP Fit Center  510 is at   3.645857  2.375574  0.204876
      ESP Fit Center  511 is at   3.355988  2.681584  0.204876
      ESP Fit Center  512 is at   3.007113  2.918128  0.204876
      ESP Fit Center  513 is at   2.615545  3.074143  0.204876
      ESP Fit Center  514 is at   2.199593  3.142334  0.204876
      ESP Fit Center  515 is at   3.645857  0.016287  0.204876
      ESP Fit Center  516 is at   3.863165  0.377456  0.204876
      ESP Fit Center  517 is at   3.997752  0.776896  0.204876
      ESP Fit Center  518 is at   4.043325  1.195930 -0.204876
      ESP Fit Center  519 is at   3.997752  1.614964 -0.204876
      ESP Fit Center  520 is at   3.863165  2.014405 -0.204876
      ESP Fit Center  521 is at   3.645857  2.375574 -0.204876
      ESP Fit Center  522 is at   3.355988  2.681584 -0.204876
      ESP Fit Center  523 is at   3.007113  2.918128 -0.204876
      ESP Fit Center  524 is at   2.615545  3.074143 -0.204876
      ESP Fit Center  525 is at   2.199593  3.142334 -0.204876
      ESP Fit Center  526 is at   3.645857  0.016287 -0.204876
      ESP Fit Center  527 is at   3.863165  0.377456 -0.204876
      ESP Fit Center  528 is at   3.997752  0.776896 -0.204876
      ESP Fit Center  529 is at   3.958133  1.195930 -0.605673
      ESP Fit Center  530 is at   3.911397  1.610725 -0.605673
      ESP Fit Center  531 is at   3.773532  2.004720 -0.605673
      ESP Fit Center  532 is at   3.551451  2.358159 -0.605673
      ESP Fit Center  533 is at   3.256291  2.653319 -0.605673
      ESP Fit Center  534 is at   2.902852  2.875400 -0.605673
      ESP Fit Center  535 is at   2.508857  3.013265 -0.605673
      ESP Fit Center  536 is at   2.094062  3.060001 -0.605673
      ESP Fit Center  537 is at   3.551451  0.033701 -0.605673
      ESP Fit Center  538 is at   3.773532  0.387140 -0.605673
      ESP Fit Center  539 is at   3.911397  0.781135 -0.605673
      ESP Fit Center  540 is at   3.791472  1.195930 -0.980000
      ESP Fit Center  541 is at   3.738144  1.618059 -0.980000
      ESP Fit Center  542 is at   3.581513  2.013664 -0.980000
      ESP Fit Center  543 is at   3.331420  2.357887 -0.980000
      ESP Fit Center  544 is at   3.003580  2.629101 -0.980000
      ESP Fit Center  545 is at   2.618590  2.810263 -0.980000
      ESP Fit Center  546 is at   2.200643  2.889991 -0.980000
      ESP Fit Center  547 is at   3.331420  0.033973 -0.980000
      ESP Fit Center  548 is at   3.581513  0.378197 -0.980000
      ESP Fit Center  549 is at   3.738144  0.773802 -0.980000
      ESP Fit Center  550 is at   3.550626  1.195930 -1.311496
      ESP Fit Center  551 is at   3.491625  1.606292 -1.311496
      ESP Fit Center  552 is at   3.319401  1.983408 -1.311496
      ESP Fit Center  553 is at   3.047908  2.296728 -1.311496
      ESP Fit Center  554 is at   2.699140  2.520867 -1.311496
      ESP Fit Center  555 is at   2.301353  2.637668 -1.311496
      ESP Fit Center  556 is at   1.886771  2.637668 -1.311496
      ESP Fit Center  557 is at   2.699140 -0.129007 -1.311496
      ESP Fit Center  558 is at   3.047908  0.095133 -1.311496
      ESP Fit Center  559 is at   3.319401  0.408452 -1.311496
      ESP Fit Center  560 is at   3.491625  0.785569 -1.311496
      ESP Fit Center  561 is at   3.246121  1.195930 -1.585673
      ESP Fit Center  562 is at   3.168325  1.612102 -1.585673
      ESP Fit Center  563 is at   2.945444  1.972067 -1.585673
      ESP Fit Center  564 is at   2.607579  2.227211 -1.585673
      ESP Fit Center  565 is at   2.200361  2.343075 -1.585673
      ESP Fit Center  566 is at   1.778786  2.304010 -1.585673
      ESP Fit Center  567 is at   1.778786  0.087850 -1.585673
      ESP Fit Center  568 is at   2.200361  0.048786 -1.585673
      ESP Fit Center  569 is at   2.607579  0.164649 -1.585673
      ESP Fit Center  570 is at   2.945444  0.419793 -1.585673
      ESP Fit Center  571 is at   3.168325  0.779759 -1.585673
      ESP Fit Center  572 is at   2.891266  1.195930 -1.790549
      ESP Fit Center  573 is at   2.784461  1.594532 -1.790549
      ESP Fit Center  574 is at   2.492664  1.886329 -1.790549
      ESP Fit Center  575 is at   2.094062  1.993134 -1.790549
      ESP Fit Center  576 is at   1.695460  0.505531 -1.790549
      ESP Fit Center  577 is at   2.094062  0.398726 -1.790549
      ESP Fit Center  578 is at   2.492664  0.505531 -1.790549
      ESP Fit Center  579 is at   2.784461  0.797328 -1.790549
      ESP Fit Center  580 is at   2.501569  1.195930 -1.917169
      ESP Fit Center  581 is at   2.297815  1.548842 -1.917169
      ESP Fit Center  582 is at   1.890308  1.548842 -1.917169
      ESP Fit Center  583 is at   1.890308  0.843019 -1.917169
      ESP Fit Center  584 is at   2.297815  0.843019 -1.917169
      ESP Fit Center  585 is at   2.094062  1.195930 -1.960000
      ESP Fit Center  586 is at   0.197631  2.549272  1.960000
      ESP Fit Center  587 is at   0.605138  2.549272  1.917169
      ESP Fit Center  588 is at   0.401385  2.902184  1.917169
      ESP Fit Center  589 is at  -0.006122  2.902184  1.917169
      ESP Fit Center  590 is at  -0.209876  2.549272  1.917169
      ESP Fit Center  591 is at  -0.006122  2.196361  1.917169
      ESP Fit Center  592 is at   0.401385  2.196361  1.917169
      ESP Fit Center  593 is at   0.994835  2.549272  1.790549
      ESP Fit Center  594 is at   0.888030  2.947874  1.790549
      ESP Fit Center  595 is at   0.596233  3.239671  1.790549
      ESP Fit Center  596 is at   0.197631  3.346476  1.790549
      ESP Fit Center  597 is at  -0.200971  3.239671  1.790549
      ESP Fit Center  598 is at  -0.492767  2.947874  1.790549
      ESP Fit Center  599 is at  -0.599573  2.549272  1.790549
      ESP Fit Center  600 is at  -0.492767  2.150670  1.790549
      ESP Fit Center  601 is at  -0.200971  1.858874  1.790549
      ESP Fit Center  602 is at   1.349690  2.549272  1.585673
      ESP Fit Center  603 is at   1.271894  2.965444  1.585673
      ESP Fit Center  604 is at   1.049013  3.325410  1.585673
      ESP Fit Center  605 is at   0.711148  3.580553  1.585673
      ESP Fit Center  606 is at   0.303930  3.696417  1.585673
      ESP Fit Center  607 is at  -0.117645  3.657352  1.585673
      ESP Fit Center  608 is at  -0.496639  3.468635  1.585673
      ESP Fit Center  609 is at  -0.781869  3.155753  1.585673
      ESP Fit Center  610 is at  -0.934812  2.760963  1.585673
      ESP Fit Center  611 is at  -0.934812  2.337582  1.585673
      ESP Fit Center  612 is at  -0.781869  1.942791  1.585673
      ESP Fit Center  613 is at  -0.496639  1.629909  1.585673
      ESP Fit Center  614 is at   1.595194  2.959634  1.311496
      ESP Fit Center  615 is at   1.422971  3.336750  1.311496
      ESP Fit Center  616 is at   1.151478  3.650070  1.311496
      ESP Fit Center  617 is at   0.802710  3.874209  1.311496
      ESP Fit Center  618 is at   0.404922  3.991010  1.311496
      ESP Fit Center  619 is at  -0.009659  3.991010  1.311496
      ESP Fit Center  620 is at  -0.407447  3.874209  1.311496
      ESP Fit Center  621 is at  -0.756215  3.650070  1.311496
      ESP Fit Center  622 is at  -1.027708  3.336750  1.311496
      ESP Fit Center  623 is at  -1.199932  2.959634  1.311496
      ESP Fit Center  624 is at  -1.258933  2.549272  1.311496
      ESP Fit Center  625 is at  -1.199932  2.138911  1.311496
      ESP Fit Center  626 is at  -1.027708  1.761794  1.311496
      ESP Fit Center  627 is at   1.841714  2.971401  0.980000
      ESP Fit Center  628 is at   1.685083  3.367006  0.980000
      ESP Fit Center  629 is at   1.434990  3.711229  0.980000
      ESP Fit Center  630 is at   1.107149  3.982443  0.980000
      ESP Fit Center  631 is at   0.722160  4.163605  0.980000
      ESP Fit Center  632 is at   0.304213  4.243333  0.980000
      ESP Fit Center  633 is at  -0.120432  4.216616  0.980000
      ESP Fit Center  634 is at  -0.525091  4.085135  0.980000
      ESP Fit Center  635 is at  -0.884338  3.857149  0.980000
      ESP Fit Center  636 is at  -1.175602  3.546985  0.980000
      ESP Fit Center  637 is at  -1.380580  3.174131  0.980000
      ESP Fit Center  638 is at  -1.486394  2.762014  0.980000
      ESP Fit Center  639 is at  -1.486394  2.336530  0.980000
      ESP Fit Center  640 is at  -1.380580  1.924414  0.980000
      ESP Fit Center  641 is at   1.877101  3.358062  0.605673
      ESP Fit Center  642 is at   1.655020  3.711501  0.605673
      ESP Fit Center  643 is at   1.359860  4.006662  0.605673
      ESP Fit Center  644 is at   1.006421  4.228742  0.605673
      ESP Fit Center  645 is at   0.612426  4.366607  0.605673
      ESP Fit Center  646 is at   0.197631  4.413343  0.605673
      ESP Fit Center  647 is at  -0.217163  4.366607  0.605673
      ESP Fit Center  648 is at  -0.611159  4.228742  0.605673
      ESP Fit Center  649 is at  -0.964598  4.006662  0.605673
      ESP Fit Center  650 is at  -1.259758  3.711501  0.605673
      ESP Fit Center  651 is at  -1.481838  3.358062  0.605673
      ESP Fit Center  652 is at  -1.619703  2.964067  0.605673
      ESP Fit Center  653 is at  -1.666439  2.549272  0.605673
      ESP Fit Center  654 is at  -1.619703  2.134478  0.605673
      ESP Fit Center  655 is at  -1.481838  1.740482  0.605673
      ESP Fit Center  656 is at   1.966734  3.367747  0.204876
      ESP Fit Center  657 is at   1.749426  3.728916  0.204876
      ESP Fit Center  658 is at   1.459557  4.034927  0.204876
      ESP Fit Center  659 is at   1.110682  4.271470  0.204876
      ESP Fit Center  660 is at   0.719114  4.427485  0.204876
      ESP Fit Center  661 is at   0.303162  4.495676  0.204876
      ESP Fit Center  662 is at  -0.117724  4.472857  0.204876
      ESP Fit Center  663 is at  -0.523865  4.360092  0.204876
      ESP Fit Center  664 is at  -0.896270  4.162656  0.204876
      ESP Fit Center  665 is at  -1.217525  3.889779  0.204876
      ESP Fit Center  666 is at  -1.472609  3.554222  0.204876
      ESP Fit Center  667 is at  -1.649594  3.171675  0.204876
      ESP Fit Center  668 is at  -1.740205  2.760025  0.204876
      ESP Fit Center  669 is at  -1.740205  2.338520  0.204876
      ESP Fit Center  670 is at  -1.649594  1.926870  0.204876
      ESP Fit Center  671 is at  -1.472609  1.544322  0.204876
      ESP Fit Center  672 is at   1.966734  3.367747 -0.204876
      ESP Fit Center  673 is at   1.749426  3.728916 -0.204876
      ESP Fit Center  674 is at   1.459557  4.034927 -0.204876
      ESP Fit Center  675 is at   1.110682  4.271470 -0.204876
      ESP Fit Center  676 is at   0.719114  4.427485 -0.204876
      ESP Fit Center  677 is at   0.303162  4.495676 -0.204876
      ESP Fit Center  678 is at  -0.117724  4.472857 -0.204876
      ESP Fit Center  679 is at  -0.523865  4.360092 -0.204876
      ESP Fit Center  680 is at  -0.896270  4.162656 -0.204876
      ESP Fit Center  681 is at  -1.217525  3.889779 -0.204876
      ESP Fit Center  682 is at  -1.472609  3.554222 -0.204876
      ESP Fit Center  683 is at  -1.649594  3.171675 -0.204876
      ESP Fit Center  684 is at  -1.740205  2.760025 -0.204876
      ESP Fit Center  685 is at  -1.740205  2.338520 -0.204876
      ESP Fit Center  686 is at  -1.649594  1.926870 -0.204876
      ESP Fit Center  687 is at  -1.472609  1.544322 -0.204876
      ESP Fit Center  688 is at   1.877101  3.358062 -0.605673
      ESP Fit Center  689 is at   1.655020  3.711501 -0.605673
      ESP Fit Center  690 is at   1.359860  4.006662 -0.605673
      ESP Fit Center  691 is at   1.006421  4.228742 -0.605673
      ESP Fit Center  692 is at   0.612426  4.366607 -0.605673
      ESP Fit Center  693 is at   0.197631  4.413343 -0.605673
      ESP Fit Center  694 is at  -0.217163  4.366607 -0.605673
      ESP Fit Center  695 is at  -0.611159  4.228742 -0.605673
      ESP Fit Center  696 is at  -0.964598  4.006662 -0.605673
      ESP Fit Center  697 is at  -1.259758  3.711501 -0.605673
      ESP Fit Center  698 is at  -1.481838  3.358062 -0.605673
      ESP Fit Center  699 is at  -1.619703  2.964067 -0.605673
      ESP Fit Center  700 is at  -1.666439  2.549272 -0.605673
      ESP Fit Center  701 is at  -1.619703  2.134478 -0.605673
      ESP Fit Center  702 is at  -1.481838  1.740482 -0.605673
      ESP Fit Center  703 is at   1.841714  2.971401 -0.980000
      ESP Fit Center  704 is at   1.685083  3.367006 -0.980000
      ESP Fit Center  705 is at   1.434990  3.711229 -0.980000
      ESP Fit Center  706 is at   1.107149  3.982443 -0.980000
      ESP Fit Center  707 is at   0.722160  4.163605 -0.980000
      ESP Fit Center  708 is at   0.304213  4.243333 -0.980000
      ESP Fit Center  709 is at  -0.120432  4.216616 -0.980000
      ESP Fit Center  710 is at  -0.525091  4.085135 -0.980000
      ESP Fit Center  711 is at  -0.884338  3.857149 -0.980000
      ESP Fit Center  712 is at  -1.175602  3.546985 -0.980000
      ESP Fit Center  713 is at  -1.380580  3.174131 -0.980000
      ESP Fit Center  714 is at  -1.486394  2.762014 -0.980000
      ESP Fit Center  715 is at  -1.486394  2.336530 -0.980000
      ESP Fit Center  716 is at  -1.380580  1.924414 -0.980000
      ESP Fit Center  717 is at   1.595194  2.959634 -1.311496
      ESP Fit Center  718 is at   1.422971  3.336750 -1.311496
      ESP Fit Center  719 is at   1.151478  3.650070 -1.311496
      ESP Fit Center  720 is at   0.802710  3.874209 -1.311496
      ESP Fit Center  721 is at   0.404922  3.991010 -1.311496
      ESP Fit Center  722 is at  -0.009659  3.991010 -1.311496
      ESP Fit Center  723 is at  -0.407447  3.874209 -1.311496
      ESP Fit Center  724 is at  -0.756215  3.650070 -1.311496
      ESP Fit Center  725 is at  -1.027708  3.336750 -1.311496
      ESP Fit Center  726 is at  -1.199932  2.959634 -1.311496
      ESP Fit Center  727 is at  -1.258933  2.549272 -1.311496
      ESP Fit Center  728 is at  -1.199932  2.138911 -1.311496
      ESP Fit Center  729 is at  -1.027708  1.761794 -1.311496
      ESP Fit Center  730 is at   1.349690  2.549272 -1.585673
      ESP Fit Center  731 is at   1.271894  2.965444 -1.585673
      ESP Fit Center  732 is at   1.049013  3.325410 -1.585673
      ESP Fit Center  733 is at   0.711148  3.580553 -1.585673
      ESP Fit Center  734 is at   0.303930  3.696417 -1.585673
      ESP Fit Center  735 is at  -0.117645  3.657352 -1.585673
      ESP Fit Center  736 is at  -0.496639  3.468635 -1.585673
      ESP Fit Center  737 is at  -0.781869  3.155753 -1.585673
      ESP Fit Center  738 is at  -0.934812  2.760963 -1.585673
      ESP Fit Center  739 is at  -0.934812  2.337582 -1.585673
      ESP Fit Center  740 is at  -0.781869  1.942791 -1.585673
      ESP Fit Center  741 is at  -0.496639  1.629909 -1.585673
      ESP Fit Center  742 is at   0.994835  2.549272 -1.790549
      ESP Fit Center  743 is at   0.888030  2.947874 -1.790549
      ESP Fit Center  744 is at   0.596233  3.239671 -1.790549
      ESP Fit Center  745 is at   0.197631  3.346476 -1.790549
      ESP Fit Center  746 is at  -0.200971  3.239671 -1.790549
      ESP Fit Center  747 is at  -0.492767  2.947874 -1.790549
      ESP Fit Center  748 is at  -0.599573  2.549272 -1.790549
      ESP Fit Center  749 is at  -0.492767  2.150670 -1.790549
      ESP Fit Center  750 is at  -0.200971  1.858874 -1.790549
      ESP Fit Center  751 is at   0.605138  2.549272 -1.917169
      ESP Fit Center  752 is at   0.401385  2.902184 -1.917169
      ESP Fit Center  753 is at  -0.006122  2.902184 -1.917169
      ESP Fit Center  754 is at  -0.209876  2.549272 -1.917169
      ESP Fit Center  755 is at  -0.006122  2.196361 -1.917169
      ESP Fit Center  756 is at   0.401385  2.196361 -1.917169
      ESP Fit Center  757 is at   0.197631  2.549272 -1.960000
      ESP Fit Center  758 is at   1.983375 -0.758893  2.078461
      ESP Fit Center  759 is at   1.774997 -0.397972  2.078461
      ESP Fit Center  760 is at   1.455744 -0.130087  2.078461
      ESP Fit Center  761 is at   2.398434 -1.169317  1.838507
      ESP Fit Center  762 is at   2.173848 -0.367760  1.838507
      ESP Fit Center  763 is at   2.341227 -1.585530  1.838507
      ESP Fit Center  764 is at   2.498693 -1.994437  1.542690
      ESP Fit Center  765 is at   2.287735 -2.675771  1.200000
      ESP Fit Center  766 is at   2.561669 -2.356676  1.200000
      ESP Fit Center  767 is at   1.792614 -3.220776  0.820848
      ESP Fit Center  768 is at   2.163924 -3.006400  0.820848
      ESP Fit Center  769 is at   2.487954 -2.725626  0.820848
      ESP Fit Center  770 is at   2.752991 -2.388604  0.820848
      ESP Fit Center  771 is at  -1.273731 -2.194818  0.416756
      ESP Fit Center  772 is at  -1.056399 -2.558570  0.416756
      ESP Fit Center  773 is at  -0.777610 -2.877671  0.416756
      ESP Fit Center  774 is at  -0.446323 -3.141863  0.416756
      ESP Fit Center  775 is at   0.329807 -3.473597  0.416756
      ESP Fit Center  776 is at   0.749704 -3.530476  0.416756
      ESP Fit Center  777 is at   1.173009 -3.511465  0.416756
      ESP Fit Center  778 is at   1.586117 -3.417176  0.416756
      ESP Fit Center  779 is at   1.975751 -3.250639  0.416756
      ESP Fit Center  780 is at   2.329386 -3.017206  0.416756
      ESP Fit Center  781 is at   2.635657 -2.724381  0.416756
      ESP Fit Center  782 is at  -1.399519 -1.990166  0.000000
      ESP Fit Center  783 is at  -1.222717 -2.369317  0.000000
      ESP Fit Center  784 is at  -0.982763 -2.712007  0.000000
      ESP Fit Center  785 is at  -0.686947 -3.007824  0.000000
      ESP Fit Center  786 is at  -0.344256 -3.247778  0.000000
      ESP Fit Center  787 is at   0.034895 -3.424579  0.000000
      ESP Fit Center  788 is at   0.438988 -3.532856  0.000000
      ESP Fit Center  789 is at   0.855744 -3.569317  0.000000
      ESP Fit Center  790 is at   1.272499 -3.532856  0.000000
      ESP Fit Center  791 is at   1.676592 -3.424579  0.000000
      ESP Fit Center  792 is at   2.055744 -3.247778  0.000000
      ESP Fit Center  793 is at   2.398434 -3.007824  0.000000
      ESP Fit Center  794 is at   2.694250 -2.712007  0.000000
      ESP Fit Center  795 is at  -1.273731 -2.194818 -0.416756
      ESP Fit Center  796 is at  -1.056399 -2.558570 -0.416756
      ESP Fit Center  797 is at  -0.777610 -2.877671 -0.416756
      ESP Fit Center  798 is at  -0.446323 -3.141863 -0.416756
      ESP Fit Center  799 is at   0.329807 -3.473597 -0.416756
      ESP Fit Center  800 is at   0.749704 -3.530476 -0.416756
      ESP Fit Center  801 is at   1.173009 -3.511465 -0.416756
      ESP Fit Center  802 is at   1.586117 -3.417176 -0.416756
      ESP Fit Center  803 is at   1.975751 -3.250639 -0.416756
      ESP Fit Center  804 is at   2.329386 -3.017206 -0.416756
      ESP Fit Center  805 is at   2.635657 -2.724381 -0.416756
      ESP Fit Center  806 is at   1.792614 -3.220776 -0.820848
      ESP Fit Center  807 is at   2.163924 -3.006400 -0.820848
      ESP Fit Center  808 is at   2.487954 -2.725626 -0.820848
      ESP Fit Center  809 is at   2.752991 -2.388604 -0.820848
      ESP Fit Center  810 is at   2.287735 -2.675771 -1.200000
      ESP Fit Center  811 is at   2.561669 -2.356676 -1.200000
      ESP Fit Center  812 is at   2.498693 -1.994437 -1.542690
      ESP Fit Center  813 is at   2.398434 -1.169317 -1.838507
      ESP Fit Center  814 is at   2.173848 -0.367760 -1.838507
      ESP Fit Center  815 is at   2.341227 -1.585530 -1.838507
      ESP Fit Center  816 is at   1.983375 -0.758893 -2.078461
      ESP Fit Center  817 is at   1.774997 -0.397972 -2.078461
      ESP Fit Center  818 is at   1.455744 -0.130087 -2.078461
      ESP Fit Center  819 is at   2.648833 -0.855570  1.729860
      ESP Fit Center  820 is at   2.537225 -0.439041  1.729860
      ESP Fit Center  821 is at   2.537225 -1.272098  1.729860
      ESP Fit Center  822 is at   3.012877 -0.855570  1.501116
      ESP Fit Center  823 is at   2.940683 -0.446137  1.501116
      ESP Fit Center  824 is at   2.732808 -1.625051  1.501116
      ESP Fit Center  825 is at   2.940683 -1.265002  1.501116
      ESP Fit Center  826 is at   3.316893 -0.855570  1.197100
      ESP Fit Center  827 is at   3.256087 -0.432656  1.197100
      ESP Fit Center  828 is at   2.798799 -1.990038  1.197100
      ESP Fit Center  829 is at   3.078596 -1.667135  1.197100
      ESP Fit Center  830 is at   3.256087 -1.278483  1.197100
      ESP Fit Center  831 is at   3.545637 -0.855570  0.833057
      ESP Fit Center  832 is at   3.495370 -0.441587  0.833057
      ESP Fit Center  833 is at   3.110595 -2.002679  0.833057
      ESP Fit Center  834 is at   3.347491 -1.659476  0.833057
      ESP Fit Center  835 is at   3.495370 -1.269552  0.833057
      ESP Fit Center  836 is at   3.687638 -0.855570  0.427240
      ESP Fit Center  837 is at   3.640706 -0.439041  0.427240
      ESP Fit Center  838 is at   2.982863 -2.319050  0.427240
      ESP Fit Center  839 is at   3.279257 -2.022656  0.427240
      ESP Fit Center  840 is at   3.502265 -1.667740  0.427240
      ESP Fit Center  841 is at   3.640706 -1.272098  0.427240
      ESP Fit Center  842 is at   3.735776 -0.855570  0.000000
      ESP Fit Center  843 is at   3.690888 -0.442827  0.000000
      ESP Fit Center  844 is at   3.058758 -2.318921  0.000000
      ESP Fit Center  845 is at   3.344275 -2.017504  0.000000
      ESP Fit Center  846 is at   3.558321 -1.661757  0.000000
      ESP Fit Center  847 is at   3.690888 -1.268313  0.000000
      ESP Fit Center  848 is at   3.687638 -0.855570 -0.427240
      ESP Fit Center  849 is at   3.640706 -0.439041 -0.427240
      ESP Fit Center  850 is at   2.982863 -2.319050 -0.427240
      ESP Fit Center  851 is at   3.279257 -2.022656 -0.427240
      ESP Fit Center  852 is at   3.502265 -1.667740 -0.427240
      ESP Fit Center  853 is at   3.640706 -1.272098 -0.427240
      ESP Fit Center  854 is at   3.545637 -0.855570 -0.833057
      ESP Fit Center  855 is at   3.495370 -0.441587 -0.833057
      ESP Fit Center  856 is at   3.110595 -2.002679 -0.833057
      ESP Fit Center  857 is at   3.347491 -1.659476 -0.833057
      ESP Fit Center  858 is at   3.495370 -1.269552 -0.833057
      ESP Fit Center  859 is at   3.316893 -0.855570 -1.197100
      ESP Fit Center  860 is at   3.256087 -0.432656 -1.197100
      ESP Fit Center  861 is at   2.798799 -1.990038 -1.197100
      ESP Fit Center  862 is at   3.078596 -1.667135 -1.197100
      ESP Fit Center  863 is at   3.256087 -1.278483 -1.197100
      ESP Fit Center  864 is at   3.012877 -0.855570 -1.501116
      ESP Fit Center  865 is at   2.940683 -0.446137 -1.501116
      ESP Fit Center  866 is at   2.732808 -1.625051 -1.501116
      ESP Fit Center  867 is at   2.940683 -1.265002 -1.501116
      ESP Fit Center  868 is at   2.648833 -0.855570 -1.729860
      ESP Fit Center  869 is at   2.537225 -0.439041 -1.729860
      ESP Fit Center  870 is at   2.537225 -1.272098 -1.729860
      ESP Fit Center  871 is at   0.820848  0.000000  2.255262
      ESP Fit Center  872 is at   0.710876  0.410424  2.255262
      ESP Fit Center  873 is at   1.200000  0.000000  2.078461
      ESP Fit Center  874 is at  -1.912143  1.389253  0.416756
      ESP Fit Center  875 is at  -1.912143 -1.389253  0.416756
      ESP Fit Center  876 is at  -1.633353 -1.708354  0.416756
      ESP Fit Center  877 is at  -1.838507  1.542690  0.000000
      ESP Fit Center  878 is at  -2.078461  1.200000  0.000000
      ESP Fit Center  879 is at  -2.255262  0.820848  0.000000
      ESP Fit Center  880 is at  -2.363539  0.416756  0.000000
      ESP Fit Center  881 is at  -2.400000  0.000000  0.000000
      ESP Fit Center  882 is at  -2.363539 -0.416756  0.000000
      ESP Fit Center  883 is at  -2.255262 -0.820848  0.000000
      ESP Fit Center  884 is at  -2.078461 -1.200000  0.000000
      ESP Fit Center  885 is at  -1.838507 -1.542690  0.000000
      ESP Fit Center  886 is at  -1.542690 -1.838507  0.000000
      ESP Fit Center  887 is at  -1.912143  1.389253 -0.416756
      ESP Fit Center  888 is at  -1.912143 -1.389253 -0.416756
      ESP Fit Center  889 is at  -1.633353 -1.708354 -0.416756
      ESP Fit Center  890 is at   1.200000  0.000000 -2.078461
      ESP Fit Center  891 is at   0.820848  0.000000 -2.255262
      ESP Fit Center  892 is at   0.710876  0.410424 -2.255262
      ESP Fit Center  893 is at  -0.499720 -3.101347 -0.447446
      ESP Fit Center  894 is at  -0.144803 -3.324356 -0.447446
      ESP Fit Center  895 is at   0.250839 -3.462797 -0.447446
      ESP Fit Center  896 is at  -1.152127 -2.250926 -0.874686
      ESP Fit Center  897 is at  -0.977799 -2.627731 -0.874686
      ESP Fit Center  898 is at  -0.726544 -2.958250 -0.874686
      ESP Fit Center  899 is at  -0.410112 -3.227030 -0.874686
      ESP Fit Center  900 is at  -0.043298 -3.421502 -0.874686
      ESP Fit Center  901 is at   0.356746 -3.532574 -0.874686
      ESP Fit Center  902 is at   0.771314 -3.555051 -0.874686
      ESP Fit Center  903 is at   1.181021 -3.487883 -0.874686
      ESP Fit Center  904 is at   1.566711 -3.334210 -0.874686
      ESP Fit Center  905 is at  -1.157563 -2.054396 -1.301926
      ESP Fit Center  906 is at  -1.019122 -2.450037 -1.301926
      ESP Fit Center  907 is at  -0.796113 -2.804954 -1.301926
      ESP Fit Center  908 is at  -0.499720 -3.101347 -1.301926
      ESP Fit Center  909 is at  -0.144803 -3.324356 -1.301926
      ESP Fit Center  910 is at   0.250839 -3.462797 -1.301926
      ESP Fit Center  911 is at   0.667367 -3.509729 -1.301926
      ESP Fit Center  912 is at   1.083895 -3.462797 -1.301926
      ESP Fit Center  913 is at   1.479537 -3.324356 -1.301926
      ESP Fit Center  914 is at   1.834454 -3.101347 -1.301926
      ESP Fit Center  915 is at   2.130847 -2.804954 -1.301926
      ESP Fit Center  916 is at  -1.012227 -2.051850 -1.707743
      ESP Fit Center  917 is at  -0.864348 -2.441773 -1.707743
      ESP Fit Center  918 is at  -0.627452 -2.784977 -1.707743
      ESP Fit Center  919 is at  -0.315306 -3.061514 -1.707743
      ESP Fit Center  920 is at   0.053950 -3.255315 -1.707743
      ESP Fit Center  921 is at   0.458855 -3.355115 -1.707743
      ESP Fit Center  922 is at   0.875879 -3.355115 -1.707743
      ESP Fit Center  923 is at   1.280784 -3.255315 -1.707743
      ESP Fit Center  924 is at   1.650040 -3.061514 -1.707743
      ESP Fit Center  925 is at   1.962186 -2.784977 -1.707743
      ESP Fit Center  926 is at   2.199082 -2.441773 -1.707743
      ESP Fit Center  927 is at   2.346961 -2.051850 -1.707743
      ESP Fit Center  928 is at   2.168483 -1.637867 -2.071786
      ESP Fit Center  929 is at   2.107678 -1.214954 -2.071786
      ESP Fit Center  930 is at  -0.833749 -1.637867 -2.071786
      ESP Fit Center  931 is at  -0.772944 -2.060781 -2.071786
[...]
 3102 Fit      -0.032578
 3103 Fit      -0.019554
 3104 Fit       0.018713
 3105 Fit       0.004025
 3106 Fit      -0.051098
 3107 Fit      -0.055192
 3108 Fit      -0.064887
 3109 Fit      -0.064887
 3110 Fit      -0.051098
 3111 Fit      -0.055192
 3112 Fit      -0.039680
 3113 Fit      -0.044285
 3114 Fit      -0.046760
 3115 Fit      -0.032578
 3116 Fit      -0.019554
 3117 Fit       0.018713
 3118 Fit       0.004025
 3119 Fit      -0.017827
 3120 Fit      -0.027693
 3121 Fit      -0.033450
 3122 Fit      -0.034664
 3123 Fit      -0.030222
 3124 Fit      -0.019826
 3125 Fit      -0.005634
 3126 Fit       0.017161
 3127 Fit       0.008762
 3128 Fit      -0.004629
 3129 Fit      -0.013402
 3130 Fit      -0.022050
 3131 Fit      -0.019744
 3132 Fit      -0.007475
 3133 Fit       0.002862
 3134 Fit      -0.000644
 3135 Fit      -0.010003
 3136 Fit       0.010901
 3137 Fit       0.018887
 3138 Fit       0.025946
 3139 Fit       0.032598
 3140 Fit      -0.014946
 3141 Fit      -0.002767
 3142 Fit       0.006886
 3143 Fit       0.014889
 3144 Fit       0.021859
 3145 Fit       0.028265
 3146 Fit       0.034505
 3147 Fit       0.040950
 3148 Fit       0.047993
 3149 Fit      -0.019921
 3150 Fit      -0.007254
 3151 Fit       0.002867
 3152 Fit       0.011230
 3153 Fit       0.018428
 3154 Fit       0.024919
 3155 Fit       0.031090
 3156 Fit       0.037298
 3157 Fit       0.043906
 3158 Fit       0.051327
 3159 Fit       0.060083
 3160 Fit      -0.017659
 3161 Fit      -0.006071
 3162 Fit       0.003514
 3163 Fit       0.011612
 3164 Fit       0.018681
 3165 Fit       0.025119
 3166 Fit       0.031286
 3167 Fit       0.037527
 3168 Fit       0.044209
 3169 Fit       0.051761
 3170 Fit       0.060741
 3171 Fit      -0.025171
 3172 Fit      -0.013935
 3173 Fit      -0.003918
 3174 Fit       0.004802
 3175 Fit       0.012420
 3176 Fit       0.019219
 3177 Fit       0.025505
 3178 Fit       0.031584
 3179 Fit       0.037773
 3180 Fit       0.044415
 3181 Fit       0.051916
 3182 Fit       0.060783
 3183 Fit      -0.020355
 3184 Fit      -0.011755
 3185 Fit      -0.002935
 3186 Fit       0.005343
 3187 Fit       0.012877
 3188 Fit       0.019760
 3189 Fit       0.026216
 3190 Fit       0.032530
 3191 Fit       0.039028
 3192 Fit       0.046066
 3193 Fit       0.054043
 3194 Fit       0.063362
 3195 Fit      -0.012056
 3196 Fit      -0.007347
 3197 Fit      -0.000709
 3198 Fit       0.006536
 3199 Fit       0.013675
 3200 Fit       0.020481
 3201 Fit       0.027017
 3202 Fit       0.033494
 3203 Fit       0.040192
 3204 Fit       0.047392
 3205 Fit       0.055271
 3206 Fit       0.033726
 3207 Fit       0.021059
 3208 Fit       0.010345
 3209 Fit       0.002882
 3210 Fit      -0.000395
 3211 Fit       0.000660
 3212 Fit       0.005005
 3213 Fit       0.011114
 3214 Fit       0.017838
 3215 Fit       0.024639
 3216 Fit       0.031424
 3217 Fit       0.038300
 3218 Fit       0.045333
 3219 Fit       0.052209
 3220 Fit       0.057739
 3221 Fit       0.046260
 3222 Fit       0.031595
 3223 Fit       0.020539
 3224 Fit       0.012647
 3225 Fit       0.010069
 3226 Fit       0.012658
 3227 Fit       0.018485
 3228 Fit       0.025637
 3229 Fit       0.033087
 3230 Fit       0.040206
 3231 Fit       0.045719
 3232 Fit       0.047024
 3233 Fit       0.041860
 3234 Fit       0.029733
 3235 Fit       0.020941
 3236 Fit       0.020241
 3237 Fit       0.026793
 3238 Fit       0.034509
 3239 Fit       0.036851
 3240 Fit       0.028143
 3241 Fit       0.028143
 3242 Fit       0.029733
 3243 Fit       0.020941
 3244 Fit       0.020241
 3245 Fit       0.026793
 3246 Fit       0.034509
 3247 Fit       0.036851
 3248 Fit       0.031595
 3249 Fit       0.020539
 3250 Fit       0.012647
 3251 Fit       0.010069
 3252 Fit       0.012658
 3253 Fit       0.018485
 3254 Fit       0.025637
 3255 Fit       0.033087
 3256 Fit       0.040206
 3257 Fit       0.045719
 3258 Fit       0.047024
 3259 Fit       0.041860
 3260 Fit       0.033726
 3261 Fit       0.021059
 3262 Fit       0.010345
 3263 Fit       0.002882
 3264 Fit      -0.000395
 3265 Fit       0.000660
 3266 Fit       0.005005
 3267 Fit       0.011114
 3268 Fit       0.017838
 3269 Fit       0.024639
 3270 Fit       0.031424
 3271 Fit       0.038300
 3272 Fit       0.045333
 3273 Fit       0.052209
 3274 Fit       0.057739
 3275 Fit       0.046260
 3276 Fit      -0.012056
 3277 Fit      -0.007347
 3278 Fit      -0.000709
 3279 Fit       0.006536
 3280 Fit       0.013675
 3281 Fit       0.020481
 3282 Fit       0.027017
 3283 Fit       0.033494
 3284 Fit       0.040192
 3285 Fit       0.047392
 3286 Fit       0.055271
 3287 Fit      -0.020355
 3288 Fit      -0.011755
 3289 Fit      -0.002935
 3290 Fit       0.005343
 3291 Fit       0.012877
 3292 Fit       0.019760
 3293 Fit       0.026216
 3294 Fit       0.032530
 3295 Fit       0.039028
 3296 Fit       0.046066
 3297 Fit       0.054043
 3298 Fit       0.063362
 3299 Fit      -0.025171
 3300 Fit      -0.013935
 3301 Fit      -0.003918
 3302 Fit       0.004802
 3303 Fit       0.012420
 3304 Fit       0.019219
 3305 Fit       0.025505
 3306 Fit       0.031584
 3307 Fit       0.037773
 3308 Fit       0.044415
 3309 Fit       0.051916
 3310 Fit       0.060783
 3311 Fit      -0.017659
 3312 Fit      -0.006071
 3313 Fit       0.003514
 3314 Fit       0.011612
 3315 Fit       0.018681
 3316 Fit       0.025119
 3317 Fit       0.031286
 3318 Fit       0.037527
 3319 Fit       0.044209
 3320 Fit       0.051761
 3321 Fit       0.060741
 3322 Fit      -0.019921
 3323 Fit      -0.007254
 3324 Fit       0.002867
 3325 Fit       0.011230
 3326 Fit       0.018428
 3327 Fit       0.024919
 3328 Fit       0.031090
 3329 Fit       0.037298
 3330 Fit       0.043906
 3331 Fit       0.051327
 3332 Fit       0.060083
 3333 Fit      -0.014946
 3334 Fit      -0.002767
 3335 Fit       0.006886
 3336 Fit       0.014889
 3337 Fit       0.021859
 3338 Fit       0.028265
 3339 Fit       0.034505
 3340 Fit       0.040950
 3341 Fit       0.047993
 3342 Fit       0.010901
 3343 Fit       0.018887
 3344 Fit       0.025946
 3345 Fit       0.032598
 3346 Fit      -0.021008
 3347 Fit      -0.024101
 3348 Fit      -0.031240
 3349 Fit      -0.013394
 3350 Fit      -0.026818
 3351 Fit      -0.034590
 3352 Fit      -0.039877
 3353 Fit      -0.041860
 3354 Fit       0.003041
 3355 Fit      -0.006082
 3356 Fit      -0.016974
 3357 Fit      -0.029143
 3358 Fit      -0.036359
 3359 Fit      -0.042336
 3360 Fit      -0.047178
 3361 Fit      -0.050712
 3362 Fit       0.012541
 3363 Fit       0.001169
 3364 Fit      -0.010268
 3365 Fit      -0.020484
 3366 Fit      -0.031084
 3367 Fit      -0.037661
 3368 Fit      -0.043423
 3369 Fit      -0.048590
 3370 Fit      -0.053324
 3371 Fit      -0.057693
 3372 Fit      -0.061542
 3373 Fit       0.008500
 3374 Fit      -0.003714
 3375 Fit      -0.014368
 3376 Fit      -0.023417
 3377 Fit      -0.032662
 3378 Fit      -0.038839
 3379 Fit      -0.044372
 3380 Fit      -0.049487
 3381 Fit      -0.054384
 3382 Fit      -0.059263
 3383 Fit      -0.064317
 3384 Fit      -0.069677
 3385 Fit       0.004542
 3386 Fit      -0.007304
 3387 Fit      -0.017236
 3388 Fit      -0.025569
 3389 Fit      -0.033908
 3390 Fit      -0.039826
 3391 Fit      -0.045187
 3392 Fit      -0.050209
 3393 Fit      -0.055090
 3394 Fit      -0.060041
 3395 Fit      -0.065320
 3396 Fit      -0.071252
 3397 Fit       0.001631
 3398 Fit      -0.009837
 3399 Fit      -0.019283
 3400 Fit      -0.027171
 3401 Fit      -0.034855
 3402 Fit      -0.040465
 3403 Fit      -0.045589
 3404 Fit      -0.050421
 3405 Fit      -0.055137
 3406 Fit      -0.059926
 3407 Fit      -0.065018
 3408 Fit      -0.070734
 3409 Fit      -0.077523
 3410 Fit      -0.001632
 3411 Fit      -0.012359
 3412 Fit      -0.021154
 3413 Fit      -0.028520
 3414 Fit      -0.035533
 3415 Fit      -0.040940
 3416 Fit      -0.045903
 3417 Fit      -0.050602
 3418 Fit      -0.055197
 3419 Fit      -0.059857
 3420 Fit      -0.064789
 3421 Fit      -0.070282
 3422 Fit      -0.076760
 3423 Fit      -0.084858
 3424 Fit      -0.003810
 3425 Fit      -0.014049
 3426 Fit      -0.022427
 3427 Fit      -0.029459
 3428 Fit      -0.035969
 3429 Fit      -0.041375
 3430 Fit      -0.046345
 3431 Fit      -0.051062
 3432 Fit      -0.055688
 3433 Fit      -0.060393
 3434 Fit      -0.065391
 3435 Fit      -0.070980
 3436 Fit      -0.077613
 3437 Fit      -0.085996
 3438 Fit      -0.004060
 3439 Fit      -0.014436
 3440 Fit      -0.022858
 3441 Fit      -0.029898
 3442 Fit      -0.036183
 3443 Fit      -0.041525
 3444 Fit      -0.046444
 3445 Fit      -0.051117
 3446 Fit      -0.055701
 3447 Fit      -0.060360
 3448 Fit      -0.065298
 3449 Fit      -0.070800
 3450 Fit      -0.077298
 3451 Fit      -0.085472
 3452 Fit      -0.004741
 3453 Fit      -0.014961
 3454 Fit      -0.023254
 3455 Fit      -0.030192
 3456 Fit      -0.036183
 3457 Fit      -0.041525
 3458 Fit      -0.046444
 3459 Fit      -0.051117
 3460 Fit      -0.055701
 3461 Fit      -0.060360
 3462 Fit      -0.065298
 3463 Fit      -0.070800
 3464 Fit      -0.077298
 3465 Fit      -0.085472
 3466 Fit      -0.004741
 3467 Fit      -0.014961
 3468 Fit      -0.023254
 3469 Fit      -0.030192
 3470 Fit      -0.035969
 3471 Fit      -0.041375
 3472 Fit      -0.046345
 3473 Fit      -0.051062
 3474 Fit      -0.055688
 3475 Fit      -0.060393
 3476 Fit      -0.065391
 3477 Fit      -0.070980
 3478 Fit      -0.077613
 3479 Fit      -0.085996
 3480 Fit      -0.004060
 3481 Fit      -0.014436
 3482 Fit      -0.022858
 3483 Fit      -0.029898
 3484 Fit      -0.035533
 3485 Fit      -0.040940
 3486 Fit      -0.045903
 3487 Fit      -0.050602
 3488 Fit      -0.055197
 3489 Fit      -0.059857
 3490 Fit      -0.064789
 3491 Fit      -0.070282
 3492 Fit      -0.076760
 3493 Fit      -0.084858
 3494 Fit      -0.003810
 3495 Fit      -0.014049
 3496 Fit      -0.022427
 3497 Fit      -0.029459
 3498 Fit      -0.034855
 3499 Fit      -0.040465
 3500 Fit      -0.045589
 3501 Fit      -0.050421
 3502 Fit      -0.055137
 3503 Fit      -0.059926
 3504 Fit      -0.065018
 3505 Fit      -0.070734
 3506 Fit      -0.077523
 3507 Fit      -0.001632
 3508 Fit      -0.012359
 3509 Fit      -0.021154
 3510 Fit      -0.028520
 3511 Fit      -0.033908
 3512 Fit      -0.039826
 3513 Fit      -0.045187
 3514 Fit      -0.050209
 3515 Fit      -0.055090
 3516 Fit      -0.060041
 3517 Fit      -0.065320
 3518 Fit      -0.071252
 3519 Fit       0.001631
 3520 Fit      -0.009837
 3521 Fit      -0.019283
 3522 Fit      -0.027171
 3523 Fit      -0.032662
 3524 Fit      -0.038839
 3525 Fit      -0.044372
 3526 Fit      -0.049487
 3527 Fit      -0.054384
 3528 Fit      -0.059263
 3529 Fit      -0.064317
 3530 Fit      -0.069677
 3531 Fit       0.004542
 3532 Fit      -0.007304
 3533 Fit      -0.017236
 3534 Fit      -0.025569
 3535 Fit      -0.031084
 3536 Fit      -0.037661
 3537 Fit      -0.043423
 3538 Fit      -0.048590
 3539 Fit      -0.053324
 3540 Fit      -0.057693
 3541 Fit      -0.061542
 3542 Fit       0.008500
 3543 Fit      -0.003714
 3544 Fit      -0.014368
 3545 Fit      -0.023417
 3546 Fit      -0.029143
 3547 Fit      -0.036359
 3548 Fit      -0.042336
 3549 Fit      -0.047178
 3550 Fit      -0.050712
 3551 Fit       0.012541
 3552 Fit       0.001169
 3553 Fit      -0.010268
 3554 Fit      -0.020484
 3555 Fit      -0.026818
 3556 Fit      -0.034590
 3557 Fit      -0.039877
 3558 Fit      -0.041860
 3559 Fit       0.003041
 3560 Fit      -0.006082
 3561 Fit      -0.016974
 3562 Fit      -0.024101
 3563 Fit      -0.031240
 3564 Fit      -0.013394
 3565 Fit      -0.021008
 3566 Fit      -0.045294
 3567 Fit      -0.047673
 3568 Fit      -0.052411
 3569 Fit      -0.050509
 3570 Fit      -0.043627
 3571 Fit      -0.036806
 3572 Fit      -0.056441
 3573 Fit      -0.058355
 3574 Fit      -0.057609
 3575 Fit      -0.054693
 3576 Fit      -0.049666
 3577 Fit      -0.042497
 3578 Fit      -0.033933
 3579 Fit      -0.060479
 3580 Fit      -0.062759
 3581 Fit      -0.063286
 3582 Fit      -0.062540
 3583 Fit      -0.060759
 3584 Fit      -0.057988
 3585 Fit      -0.054091
 3586 Fit      -0.048788
 3587 Fit      -0.041783
 3588 Fit      -0.033037
 3589 Fit      -0.023275
 3590 Fit      -0.067154
 3591 Fit      -0.067651
 3592 Fit      -0.067341
 3593 Fit      -0.066409
 3594 Fit      -0.064953
 3595 Fit      -0.063007
 3596 Fit      -0.060530
 3597 Fit      -0.057389
 3598 Fit      -0.053360
 3599 Fit      -0.048141
 3600 Fit      -0.041400
 3601 Fit      -0.032855
 3602 Fit      -0.072199
 3603 Fit      -0.071981
 3604 Fit      -0.071379
 3605 Fit      -0.070456
 3606 Fit      -0.069242
 3607 Fit      -0.067758
 3608 Fit      -0.066014
 3609 Fit      -0.063987
 3610 Fit      -0.061603
 3611 Fit      -0.058726
 3612 Fit      -0.055152
 3613 Fit      -0.050613
 3614 Fit      -0.044787
 3615 Fit      -0.037306
 3616 Fit      -0.027774
 3617 Fit      -0.076439
 3618 Fit      -0.075165
 3619 Fit      -0.073903
 3620 Fit      -0.072565
 3621 Fit      -0.071111
 3622 Fit      -0.069527
 3623 Fit      -0.067809
 3624 Fit      -0.065933
 3625 Fit      -0.063846
 3626 Fit      -0.061445
 3627 Fit      -0.058578
 3628 Fit      -0.055035
 3629 Fit      -0.050553
 3630 Fit      -0.044811
 3631 Fit      -0.037422
 3632 Fit      -0.027900
 3633 Fit      -0.081022
 3634 Fit      -0.078859
 3635 Fit      -0.077103
 3636 Fit      -0.075517
 3637 Fit      -0.073970
 3638 Fit      -0.072401
 3639 Fit      -0.070784
 3640 Fit      -0.069110
 3641 Fit      -0.067360
 3642 Fit      -0.065494
 3643 Fit      -0.063439
 3644 Fit      -0.061082
 3645 Fit      -0.058269
 3646 Fit      -0.054802
 3647 Fit      -0.050438
 3648 Fit      -0.044879
 3649 Fit      -0.037763
 3650 Fit      -0.028622
 3651 Fit      -0.082126
 3652 Fit      -0.079796
 3653 Fit      -0.077884
 3654 Fit      -0.076160
 3655 Fit      -0.074507
 3656 Fit      -0.072871
 3657 Fit      -0.071230
 3658 Fit      -0.069572
 3659 Fit      -0.067879
 3660 Fit      -0.066113
 3661 Fit      -0.064207
 3662 Fit      -0.062065
 3663 Fit      -0.059552
 3664 Fit      -0.056498
 3665 Fit      -0.052694
 3666 Fit      -0.047888
 3667 Fit      -0.041775
 3668 Fit      -0.033980
 3669 Fit      -0.024003
 3670 Fit      -0.084298
 3671 Fit      -0.081486
 3672 Fit      -0.079281
 3673 Fit      -0.077371
 3674 Fit      -0.075595
 3675 Fit      -0.073876
 3676 Fit      -0.072182
 3677 Fit      -0.070499
 3678 Fit      -0.068813
 3679 Fit      -0.067092
 3680 Fit      -0.065281
 3681 Fit      -0.063295
 3682 Fit      -0.061013
 3683 Fit      -0.058280
 3684 Fit      -0.054900
 3685 Fit      -0.050641
 3686 Fit      -0.045224
 3687 Fit      -0.038311
 3688 Fit      -0.029483
 3689 Fit      -0.085627
 3690 Fit      -0.082527
 3691 Fit      -0.080155
 3692 Fit      -0.078148
 3693 Fit      -0.076316
 3694 Fit      -0.074565
 3695 Fit      -0.072857
 3696 Fit      -0.071175
 3697 Fit      -0.069505
 3698 Fit      -0.067825
 3699 Fit      -0.066089
 3700 Fit      -0.064225
 3701 Fit      -0.062129
 3702 Fit      -0.059664
 3703 Fit      -0.056658
 3704 Fit      -0.052901
 3705 Fit      -0.048146
 3706 Fit      -0.042095
 3707 Fit      -0.034394
 3708 Fit      -0.024608
 3709 Fit      -0.085627
 3710 Fit      -0.082527
 3711 Fit      -0.080155
 3712 Fit      -0.078148
 3713 Fit      -0.076316
 3714 Fit      -0.074565
 3715 Fit      -0.072857
 3716 Fit      -0.071175
 3717 Fit      -0.069505
 3718 Fit      -0.067825
 3719 Fit      -0.066089
 3720 Fit      -0.064225
 3721 Fit      -0.062129
 3722 Fit      -0.059664
 3723 Fit      -0.056658
 3724 Fit      -0.052901
 3725 Fit      -0.048146
 3726 Fit      -0.042095
 3727 Fit      -0.034394
 3728 Fit      -0.024608
 3729 Fit      -0.084298
 3730 Fit      -0.081486
 3731 Fit      -0.079281
 3732 Fit      -0.077371
 3733 Fit      -0.075595
 3734 Fit      -0.073876
 3735 Fit      -0.072182
 3736 Fit      -0.070499
 3737 Fit      -0.068813
 3738 Fit      -0.067092
 3739 Fit      -0.065281
 3740 Fit      -0.063295
 3741 Fit      -0.061013
 3742 Fit      -0.058280
 3743 Fit      -0.054900
 3744 Fit      -0.050641
 3745 Fit      -0.045224
 3746 Fit      -0.038311
 3747 Fit      -0.029483
 3748 Fit      -0.082126
 3749 Fit      -0.079796
 3750 Fit      -0.077884
 3751 Fit      -0.076160
 3752 Fit      -0.074507
 3753 Fit      -0.072871
 3754 Fit      -0.071230
 3755 Fit      -0.069572
 3756 Fit      -0.067879
 3757 Fit      -0.066113
 3758 Fit      -0.064207
 3759 Fit      -0.062065
 3760 Fit      -0.059552
 3761 Fit      -0.056498
 3762 Fit      -0.052694
 3763 Fit      -0.047888
 3764 Fit      -0.041775
 3765 Fit      -0.033980
 3766 Fit      -0.024003
 3767 Fit      -0.081022
 3768 Fit      -0.078859
 3769 Fit      -0.077103
 3770 Fit      -0.075517
 3771 Fit      -0.073970
 3772 Fit      -0.072401
 3773 Fit      -0.070784
 3774 Fit      -0.069110
 3775 Fit      -0.067360
 3776 Fit      -0.065494
 3777 Fit      -0.063439
 3778 Fit      -0.061082
 3779 Fit      -0.058269
 3780 Fit      -0.054802
 3781 Fit      -0.050438
 3782 Fit      -0.044879
 3783 Fit      -0.037763
 3784 Fit      -0.028622
 3785 Fit      -0.076439
 3786 Fit      -0.075165
 3787 Fit      -0.073903
 3788 Fit      -0.072565
 3789 Fit      -0.071111
 3790 Fit      -0.069527
 3791 Fit      -0.067809
 3792 Fit      -0.065933
 3793 Fit      -0.063846
 3794 Fit      -0.061445
 3795 Fit      -0.058578
 3796 Fit      -0.055035
 3797 Fit      -0.050553
 3798 Fit      -0.044811
 3799 Fit      -0.037422
 3800 Fit      -0.027900
 3801 Fit      -0.072199
 3802 Fit      -0.071981
 3803 Fit      -0.071379
 3804 Fit      -0.070456
 3805 Fit      -0.069242
 3806 Fit      -0.067758
 3807 Fit      -0.066014
 3808 Fit      -0.063987
 3809 Fit      -0.061603
 3810 Fit      -0.058726
 3811 Fit      -0.055152
 3812 Fit      -0.050613
 3813 Fit      -0.044787
 3814 Fit      -0.037306
 3815 Fit      -0.027774
 3816 Fit      -0.067154
 3817 Fit      -0.067651
 3818 Fit      -0.067341
 3819 Fit      -0.066409
 3820 Fit      -0.064953
 3821 Fit      -0.063007
 3822 Fit      -0.060530
 3823 Fit      -0.057389
 3824 Fit      -0.053360
 3825 Fit      -0.048141
 3826 Fit      -0.041400
 3827 Fit      -0.032855
 3828 Fit      -0.060479
 3829 Fit      -0.062759
 3830 Fit      -0.063286
 3831 Fit      -0.062540
 3832 Fit      -0.060759
 3833 Fit      -0.057988
 3834 Fit      -0.054091
 3835 Fit      -0.048788
 3836 Fit      -0.041783
 3837 Fit      -0.033037
 3838 Fit      -0.023275
 3839 Fit      -0.056441
 3840 Fit      -0.058355
 3841 Fit      -0.057609
 3842 Fit      -0.054693
 3843 Fit      -0.049666
 3844 Fit      -0.042497
 3845 Fit      -0.033933
 3846 Fit      -0.047673
 3847 Fit      -0.052411
 3848 Fit      -0.050509
 3849 Fit      -0.043627
 3850 Fit      -0.036806
 3851 Fit      -0.045294
 -----------------------------------------------------------------
 Leave Link  602 at Wed Sep  6 11:07:03 2023, MaxMem=   104857600 cpu:               0.1 elap:               0.2

 Test job not archived.
 1\1\GINC-KEPLER06\SP\RHF\6-31G(d)\C2H5N1O2\NORIWO\06-Sep-2023\0\\# hf/
 6-31g(d) geom=connectivity iop(6/33=2,6/42=6,6/50=1) pop=mk scf=tight 
 nosymm\\Glycine\\0,1\N,0,0.85574373,-1.1693172,0.\H,0,1.81577633,-0.85
 556984,0.\C,0,0.,0.,0.\H,0,0.66736703,-1.63786714,-0.874686\H,0,0.6673
 6703,-1.63786714,0.874686\C,0,0.83787925,1.27060798,0.\H,0,-0.62945942
 ,-0.0097818,-0.889823\H,0,-0.62945942,-0.0097818,0.889823\O,0,2.094061
 93,1.19593025,0.\O,0,0.19763128,2.54927233,0.\\Version=ES64L-G16RevC.0
 1\HF=-282.7087728\RMSD=4.949e-09\Dipole=-0.761207,-5.2601553,0.\Quadru
 pole=-0.4827588,-7.0441063,7.5268651,-7.5337827,0.,0.\PG=CS [SG(C2H1N1
 O2),X(H4)]\\@


 IF AT FIRST YOU DON'T SUCCEED, TRY LOOKING IN 
 THE WASTEBASKET FOR THE DIRECTIONS.
 Job cpu time:       0 days  0 hours  0 minutes  1.9 seconds.
 Elapsed time:       0 days  0 hours  0 minutes  2.9 seconds.
 File lengths (MBytes):  RWF=      6 Int=      0 D2E=      0 Chk=      3 Scr=      1
 Normal termination of Gaussian 16 at Wed Sep  6 11:07:04 2023.
